# vtk DataFile Version 3.0
9.SOU_1Pe = 1,Grid 41x41,255213.vtk
ASCII
DATASET STRUCTURED_GRID
DIMENSIONS 41 41 1
POINTS 1681 double
0.000000e+00 0.000000e+00 0.0
2.500000e-02 0.000000e+00 0.0
5.000000e-02 0.000000e+00 0.0
7.500000e-02 0.000000e+00 0.0
1.000000e-01 0.000000e+00 0.0
1.250000e-01 0.000000e+00 0.0
1.500000e-01 0.000000e+00 0.0
1.750000e-01 0.000000e+00 0.0
2.000000e-01 0.000000e+00 0.0
2.250000e-01 0.000000e+00 0.0
2.500000e-01 0.000000e+00 0.0
2.750000e-01 0.000000e+00 0.0
3.000000e-01 0.000000e+00 0.0
3.250000e-01 0.000000e+00 0.0
3.500000e-01 0.000000e+00 0.0
3.750000e-01 0.000000e+00 0.0
4.000000e-01 0.000000e+00 0.0
4.250000e-01 0.000000e+00 0.0
4.500000e-01 0.000000e+00 0.0
4.750000e-01 0.000000e+00 0.0
5.000000e-01 0.000000e+00 0.0
5.250000e-01 0.000000e+00 0.0
5.500000e-01 0.000000e+00 0.0
5.750000e-01 0.000000e+00 0.0
6.000000e-01 0.000000e+00 0.0
6.250000e-01 0.000000e+00 0.0
6.500000e-01 0.000000e+00 0.0
6.750000e-01 0.000000e+00 0.0
7.000000e-01 0.000000e+00 0.0
7.250000e-01 0.000000e+00 0.0
7.500000e-01 0.000000e+00 0.0
7.750000e-01 0.000000e+00 0.0
8.000000e-01 0.000000e+00 0.0
8.250000e-01 0.000000e+00 0.0
8.500000e-01 0.000000e+00 0.0
8.750000e-01 0.000000e+00 0.0
9.000000e-01 0.000000e+00 0.0
9.250000e-01 0.000000e+00 0.0
9.500000e-01 0.000000e+00 0.0
9.750000e-01 0.000000e+00 0.0
1.000000e+00 0.000000e+00 0.0
0.000000e+00 2.500000e-02 0.0
2.500000e-02 2.500000e-02 0.0
5.000000e-02 2.500000e-02 0.0
7.500000e-02 2.500000e-02 0.0
1.000000e-01 2.500000e-02 0.0
1.250000e-01 2.500000e-02 0.0
1.500000e-01 2.500000e-02 0.0
1.750000e-01 2.500000e-02 0.0
2.000000e-01 2.500000e-02 0.0
2.250000e-01 2.500000e-02 0.0
2.500000e-01 2.500000e-02 0.0
2.750000e-01 2.500000e-02 0.0
3.000000e-01 2.500000e-02 0.0
3.250000e-01 2.500000e-02 0.0
3.500000e-01 2.500000e-02 0.0
3.750000e-01 2.500000e-02 0.0
4.000000e-01 2.500000e-02 0.0
4.250000e-01 2.500000e-02 0.0
4.500000e-01 2.500000e-02 0.0
4.750000e-01 2.500000e-02 0.0
5.000000e-01 2.500000e-02 0.0
5.250000e-01 2.500000e-02 0.0
5.500000e-01 2.500000e-02 0.0
5.750000e-01 2.500000e-02 0.0
6.000000e-01 2.500000e-02 0.0
6.250000e-01 2.500000e-02 0.0
6.500000e-01 2.500000e-02 0.0
6.750000e-01 2.500000e-02 0.0
7.000000e-01 2.500000e-02 0.0
7.250000e-01 2.500000e-02 0.0
7.500000e-01 2.500000e-02 0.0
7.750000e-01 2.500000e-02 0.0
8.000000e-01 2.500000e-02 0.0
8.250000e-01 2.500000e-02 0.0
8.500000e-01 2.500000e-02 0.0
8.750000e-01 2.500000e-02 0.0
9.000000e-01 2.500000e-02 0.0
9.250000e-01 2.500000e-02 0.0
9.500000e-01 2.500000e-02 0.0
9.750000e-01 2.500000e-02 0.0
1.000000e+00 2.500000e-02 0.0
0.000000e+00 5.000000e-02 0.0
2.500000e-02 5.000000e-02 0.0
5.000000e-02 5.000000e-02 0.0
7.500000e-02 5.000000e-02 0.0
1.000000e-01 5.000000e-02 0.0
1.250000e-01 5.000000e-02 0.0
1.500000e-01 5.000000e-02 0.0
1.750000e-01 5.000000e-02 0.0
2.000000e-01 5.000000e-02 0.0
2.250000e-01 5.000000e-02 0.0
2.500000e-01 5.000000e-02 0.0
2.750000e-01 5.000000e-02 0.0
3.000000e-01 5.000000e-02 0.0
3.250000e-01 5.000000e-02 0.0
3.500000e-01 5.000000e-02 0.0
3.750000e-01 5.000000e-02 0.0
4.000000e-01 5.000000e-02 0.0
4.250000e-01 5.000000e-02 0.0
4.500000e-01 5.000000e-02 0.0
4.750000e-01 5.000000e-02 0.0
5.000000e-01 5.000000e-02 0.0
5.250000e-01 5.000000e-02 0.0
5.500000e-01 5.000000e-02 0.0
5.750000e-01 5.000000e-02 0.0
6.000000e-01 5.000000e-02 0.0
6.250000e-01 5.000000e-02 0.0
6.500000e-01 5.000000e-02 0.0
6.750000e-01 5.000000e-02 0.0
7.000000e-01 5.000000e-02 0.0
7.250000e-01 5.000000e-02 0.0
7.500000e-01 5.000000e-02 0.0
7.750000e-01 5.000000e-02 0.0
8.000000e-01 5.000000e-02 0.0
8.250000e-01 5.000000e-02 0.0
8.500000e-01 5.000000e-02 0.0
8.750000e-01 5.000000e-02 0.0
9.000000e-01 5.000000e-02 0.0
9.250000e-01 5.000000e-02 0.0
9.500000e-01 5.000000e-02 0.0
9.750000e-01 5.000000e-02 0.0
1.000000e+00 5.000000e-02 0.0
0.000000e+00 7.500000e-02 0.0
2.500000e-02 7.500000e-02 0.0
5.000000e-02 7.500000e-02 0.0
7.500000e-02 7.500000e-02 0.0
1.000000e-01 7.500000e-02 0.0
1.250000e-01 7.500000e-02 0.0
1.500000e-01 7.500000e-02 0.0
1.750000e-01 7.500000e-02 0.0
2.000000e-01 7.500000e-02 0.0
2.250000e-01 7.500000e-02 0.0
2.500000e-01 7.500000e-02 0.0
2.750000e-01 7.500000e-02 0.0
3.000000e-01 7.500000e-02 0.0
3.250000e-01 7.500000e-02 0.0
3.500000e-01 7.500000e-02 0.0
3.750000e-01 7.500000e-02 0.0
4.000000e-01 7.500000e-02 0.0
4.250000e-01 7.500000e-02 0.0
4.500000e-01 7.500000e-02 0.0
4.750000e-01 7.500000e-02 0.0
5.000000e-01 7.500000e-02 0.0
5.250000e-01 7.500000e-02 0.0
5.500000e-01 7.500000e-02 0.0
5.750000e-01 7.500000e-02 0.0
6.000000e-01 7.500000e-02 0.0
6.250000e-01 7.500000e-02 0.0
6.500000e-01 7.500000e-02 0.0
6.750000e-01 7.500000e-02 0.0
7.000000e-01 7.500000e-02 0.0
7.250000e-01 7.500000e-02 0.0
7.500000e-01 7.500000e-02 0.0
7.750000e-01 7.500000e-02 0.0
8.000000e-01 7.500000e-02 0.0
8.250000e-01 7.500000e-02 0.0
8.500000e-01 7.500000e-02 0.0
8.750000e-01 7.500000e-02 0.0
9.000000e-01 7.500000e-02 0.0
9.250000e-01 7.500000e-02 0.0
9.500000e-01 7.500000e-02 0.0
9.750000e-01 7.500000e-02 0.0
1.000000e+00 7.500000e-02 0.0
0.000000e+00 1.000000e-01 0.0
2.500000e-02 1.000000e-01 0.0
5.000000e-02 1.000000e-01 0.0
7.500000e-02 1.000000e-01 0.0
1.000000e-01 1.000000e-01 0.0
1.250000e-01 1.000000e-01 0.0
1.500000e-01 1.000000e-01 0.0
1.750000e-01 1.000000e-01 0.0
2.000000e-01 1.000000e-01 0.0
2.250000e-01 1.000000e-01 0.0
2.500000e-01 1.000000e-01 0.0
2.750000e-01 1.000000e-01 0.0
3.000000e-01 1.000000e-01 0.0
3.250000e-01 1.000000e-01 0.0
3.500000e-01 1.000000e-01 0.0
3.750000e-01 1.000000e-01 0.0
4.000000e-01 1.000000e-01 0.0
4.250000e-01 1.000000e-01 0.0
4.500000e-01 1.000000e-01 0.0
4.750000e-01 1.000000e-01 0.0
5.000000e-01 1.000000e-01 0.0
5.250000e-01 1.000000e-01 0.0
5.500000e-01 1.000000e-01 0.0
5.750000e-01 1.000000e-01 0.0
6.000000e-01 1.000000e-01 0.0
6.250000e-01 1.000000e-01 0.0
6.500000e-01 1.000000e-01 0.0
6.750000e-01 1.000000e-01 0.0
7.000000e-01 1.000000e-01 0.0
7.250000e-01 1.000000e-01 0.0
7.500000e-01 1.000000e-01 0.0
7.750000e-01 1.000000e-01 0.0
8.000000e-01 1.000000e-01 0.0
8.250000e-01 1.000000e-01 0.0
8.500000e-01 1.000000e-01 0.0
8.750000e-01 1.000000e-01 0.0
9.000000e-01 1.000000e-01 0.0
9.250000e-01 1.000000e-01 0.0
9.500000e-01 1.000000e-01 0.0
9.750000e-01 1.000000e-01 0.0
1.000000e+00 1.000000e-01 0.0
0.000000e+00 1.250000e-01 0.0
2.500000e-02 1.250000e-01 0.0
5.000000e-02 1.250000e-01 0.0
7.500000e-02 1.250000e-01 0.0
1.000000e-01 1.250000e-01 0.0
1.250000e-01 1.250000e-01 0.0
1.500000e-01 1.250000e-01 0.0
1.750000e-01 1.250000e-01 0.0
2.000000e-01 1.250000e-01 0.0
2.250000e-01 1.250000e-01 0.0
2.500000e-01 1.250000e-01 0.0
2.750000e-01 1.250000e-01 0.0
3.000000e-01 1.250000e-01 0.0
3.250000e-01 1.250000e-01 0.0
3.500000e-01 1.250000e-01 0.0
3.750000e-01 1.250000e-01 0.0
4.000000e-01 1.250000e-01 0.0
4.250000e-01 1.250000e-01 0.0
4.500000e-01 1.250000e-01 0.0
4.750000e-01 1.250000e-01 0.0
5.000000e-01 1.250000e-01 0.0
5.250000e-01 1.250000e-01 0.0
5.500000e-01 1.250000e-01 0.0
5.750000e-01 1.250000e-01 0.0
6.000000e-01 1.250000e-01 0.0
6.250000e-01 1.250000e-01 0.0
6.500000e-01 1.250000e-01 0.0
6.750000e-01 1.250000e-01 0.0
7.000000e-01 1.250000e-01 0.0
7.250000e-01 1.250000e-01 0.0
7.500000e-01 1.250000e-01 0.0
7.750000e-01 1.250000e-01 0.0
8.000000e-01 1.250000e-01 0.0
8.250000e-01 1.250000e-01 0.0
8.500000e-01 1.250000e-01 0.0
8.750000e-01 1.250000e-01 0.0
9.000000e-01 1.250000e-01 0.0
9.250000e-01 1.250000e-01 0.0
9.500000e-01 1.250000e-01 0.0
9.750000e-01 1.250000e-01 0.0
1.000000e+00 1.250000e-01 0.0
0.000000e+00 1.500000e-01 0.0
2.500000e-02 1.500000e-01 0.0
5.000000e-02 1.500000e-01 0.0
7.500000e-02 1.500000e-01 0.0
1.000000e-01 1.500000e-01 0.0
1.250000e-01 1.500000e-01 0.0
1.500000e-01 1.500000e-01 0.0
1.750000e-01 1.500000e-01 0.0
2.000000e-01 1.500000e-01 0.0
2.250000e-01 1.500000e-01 0.0
2.500000e-01 1.500000e-01 0.0
2.750000e-01 1.500000e-01 0.0
3.000000e-01 1.500000e-01 0.0
3.250000e-01 1.500000e-01 0.0
3.500000e-01 1.500000e-01 0.0
3.750000e-01 1.500000e-01 0.0
4.000000e-01 1.500000e-01 0.0
4.250000e-01 1.500000e-01 0.0
4.500000e-01 1.500000e-01 0.0
4.750000e-01 1.500000e-01 0.0
5.000000e-01 1.500000e-01 0.0
5.250000e-01 1.500000e-01 0.0
5.500000e-01 1.500000e-01 0.0
5.750000e-01 1.500000e-01 0.0
6.000000e-01 1.500000e-01 0.0
6.250000e-01 1.500000e-01 0.0
6.500000e-01 1.500000e-01 0.0
6.750000e-01 1.500000e-01 0.0
7.000000e-01 1.500000e-01 0.0
7.250000e-01 1.500000e-01 0.0
7.500000e-01 1.500000e-01 0.0
7.750000e-01 1.500000e-01 0.0
8.000000e-01 1.500000e-01 0.0
8.250000e-01 1.500000e-01 0.0
8.500000e-01 1.500000e-01 0.0
8.750000e-01 1.500000e-01 0.0
9.000000e-01 1.500000e-01 0.0
9.250000e-01 1.500000e-01 0.0
9.500000e-01 1.500000e-01 0.0
9.750000e-01 1.500000e-01 0.0
1.000000e+00 1.500000e-01 0.0
0.000000e+00 1.750000e-01 0.0
2.500000e-02 1.750000e-01 0.0
5.000000e-02 1.750000e-01 0.0
7.500000e-02 1.750000e-01 0.0
1.000000e-01 1.750000e-01 0.0
1.250000e-01 1.750000e-01 0.0
1.500000e-01 1.750000e-01 0.0
1.750000e-01 1.750000e-01 0.0
2.000000e-01 1.750000e-01 0.0
2.250000e-01 1.750000e-01 0.0
2.500000e-01 1.750000e-01 0.0
2.750000e-01 1.750000e-01 0.0
3.000000e-01 1.750000e-01 0.0
3.250000e-01 1.750000e-01 0.0
3.500000e-01 1.750000e-01 0.0
3.750000e-01 1.750000e-01 0.0
4.000000e-01 1.750000e-01 0.0
4.250000e-01 1.750000e-01 0.0
4.500000e-01 1.750000e-01 0.0
4.750000e-01 1.750000e-01 0.0
5.000000e-01 1.750000e-01 0.0
5.250000e-01 1.750000e-01 0.0
5.500000e-01 1.750000e-01 0.0
5.750000e-01 1.750000e-01 0.0
6.000000e-01 1.750000e-01 0.0
6.250000e-01 1.750000e-01 0.0
6.500000e-01 1.750000e-01 0.0
6.750000e-01 1.750000e-01 0.0
7.000000e-01 1.750000e-01 0.0
7.250000e-01 1.750000e-01 0.0
7.500000e-01 1.750000e-01 0.0
7.750000e-01 1.750000e-01 0.0
8.000000e-01 1.750000e-01 0.0
8.250000e-01 1.750000e-01 0.0
8.500000e-01 1.750000e-01 0.0
8.750000e-01 1.750000e-01 0.0
9.000000e-01 1.750000e-01 0.0
9.250000e-01 1.750000e-01 0.0
9.500000e-01 1.750000e-01 0.0
9.750000e-01 1.750000e-01 0.0
1.000000e+00 1.750000e-01 0.0
[...]
CELL_DATA 1600
SCALARS Temperature double 1
LOOKUP_TABLE default
5.000000e-01
2.281134e-01
1.325838e-01
9.181530e-02
7.017708e-02
5.680348e-02
4.768707e-02
4.105819e-02
3.601544e-02
3.204904e-02
2.884781e-02
2.621063e-02
2.400162e-02
2.212559e-02
2.051389e-02
1.911574e-02
1.789283e-02
1.681570e-02
1.586132e-02
1.501149e-02
1.425163e-02
1.356993e-02
1.295676e-02
1.240418e-02
1.190564e-02
1.145568e-02
1.104971e-02
1.068393e-02
1.035511e-02
1.006058e-02
9.798072e-03
9.565724e-03
9.361995e-03
9.185636e-03
9.035660e-03
8.911313e-03
8.812061e-03
8.737576e-03
8.687724e-03
8.662562e-03
7.718866e-01
5.000000e-01
3.475480e-01
2.593251e-01
2.045343e-01
1.679982e-01
1.421362e-01
1.229449e-01
1.081682e-01
9.645444e-02
8.694945e-02
7.908879e-02
7.248521e-02
6.686450e-02
6.202722e-02
5.782501e-02
5.414527e-02
5.090110e-02
4.802440e-02
4.546115e-02
4.316796e-02
4.110968e-02
3.925753e-02
3.758784e-02
3.608096e-02
3.472052e-02
3.349284e-02
3.238644e-02
3.139169e-02
3.050050e-02
2.970611e-02
2.900291e-02
2.838626e-02
2.785241e-02
2.739839e-02
2.702193e-02
2.672144e-02
2.649592e-02
2.634497e-02
2.626879e-02
8.674162e-01
6.524520e-01
5.000000e-01
3.952296e-01
3.222859e-01
2.699787e-01
2.312131e-01
2.015821e-01
1.783124e-01
1.596123e-01
1.442890e-01
1.315243e-01
1.207416e-01
1.115245e-01
1.035651e-01
9.663165e-02
9.054670e-02
8.517208e-02
8.039889e-02
7.614024e-02
7.232606e-02
6.889934e-02
6.581330e-02
6.302929e-02
6.051520e-02
5.824424e-02
5.619394e-02
5.434543e-02
5.268286e-02
5.119292e-02
4.986447e-02
4.868823e-02
4.765656e-02
4.676326e-02
4.600342e-02
4.537332e-02
4.487032e-02
4.449279e-02
4.424009e-02
4.411254e-02
9.081847e-01
7.406749e-01
6.047703e-01
5.000000e-01
4.203276e-01
3.593968e-01
3.121170e-01
2.747764e-01
2.447542e-01
2.202088e-01
1.998356e-01
1.826976e-01
1.681106e-01
1.555664e-01
1.446818e-01
1.351632e-01
1.267825e-01
1.193604e-01
1.127540e-01
1.068485e-01
1.015508e-01
9.678464e-02
9.248718e-02
8.860629e-02
8.509851e-02
8.192744e-02
7.906253e-02
7.647803e-02
7.415229e-02
7.206708e-02
7.020712e-02
6.855971e-02
6.711435e-02
6.586252e-02
6.479750e-02
6.391416e-02
6.320890e-02
6.267951e-02
6.232514e-02
6.214626e-02
9.298229e-01
7.954657e-01
6.777141e-01
5.796724e-01
5.000000e-01
4.357220e-01
3.837245e-01
3.413259e-01
3.063950e-01
2.772960e-01
2.527899e-01
2.319392e-01
2.140308e-01
1.985181e-01
1.849779e-01
1.730794e-01
1.625609e-01
1.532138e-01
1.448703e-01
1.373939e-01
1.306729e-01
1.246155e-01
1.191452e-01
1.141986e-01
1.097223e-01
1.056715e-01
1.020085e-01
9.870146e-02
9.572346e-02
9.305185e-02
9.066759e-02
8.855483e-02
8.670046e-02
8.509386e-02
8.372662e-02
8.259236e-02
8.168659e-02
8.100658e-02
8.055135e-02
8.032155e-02
9.431965e-01
8.320018e-01
7.300212e-01
6.406032e-01
5.642779e-01
4.999999e-01
4.461062e-01
4.008609e-01
3.626994e-01
3.303056e-01
3.026095e-01
2.787556e-01
2.580637e-01
2.399939e-01
2.241157e-01
2.100844e-01
1.976224e-01
1.865044e-01
1.765465e-01
1.675978e-01
1.595334e-01
1.522494e-01
1.456593e-01
1.396903e-01
1.342812e-01
1.293802e-01
1.249435e-01
1.209342e-01
1.173207e-01
1.140767e-01
1.111797e-01
1.086112e-01
1.063557e-01
1.044008e-01
1.027365e-01
1.013555e-01
1.002524e-01
9.942409e-02
9.886951e-02
9.858955e-02
9.523129e-01
8.578638e-01
7.687868e-01
6.878829e-01
6.162753e-01
5.538936e-01
4.999999e-01
4.535790e-01
4.135724e-01
3.789969e-01
3.489920e-01
3.228282e-01
2.998985e-01
2.797019e-01
2.618268e-01
2.459347e-01
2.317470e-01
2.190337e-01
2.076040e-01
1.972991e-01
1.879864e-01
1.795544e-01
1.719093e-01
1.649719e-01
1.586748e-01
1.529611e-01
1.477823e-01
1.430970e-01
1.388703e-01
1.350724e-01
1.316783e-01
1.286670e-01
1.260213e-01
1.237271e-01
1.217731e-01
1.201512e-01
1.188553e-01
1.178821e-01
1.172303e-01
1.169013e-01
9.589418e-01
8.770551e-01
7.984178e-01
7.252235e-01
6.586739e-01
5.991389e-01
5.464208e-01
4.999999e-01
4.592149e-01
4.233771e-01
3.918327e-01
3.639931e-01
3.393435e-01
3.174420e-01
2.979134e-01
2.804406e-01
2.647564e-01
2.506359e-01
2.378894e-01
2.263567e-01
2.159022e-01
2.064110e-01
1.977853e-01
1.899417e-01
1.828092e-01
1.763272e-01
1.704435e-01
1.651140e-01
1.603008e-01
1.559718e-01
1.520998e-01
1.486621e-01
1.456397e-01
1.430174e-01
1.407831e-01
1.389276e-01
1.374447e-01
1.363308e-01
1.355847e-01
1.352080e-01
9.639845e-01
8.918317e-01
8.216875e-01
7.552457e-01
6.936049e-01
6.373004e-01
5.864274e-01
5.407848e-01
4.999998e-01
4.636203e-01
4.311751e-01
4.022106e-01
3.763089e-01
3.530962e-01
3.322436e-01
3.134652e-01
2.965144e-01
2.811789e-01
2.672764e-01
2.546509e-01
2.431683e-01
2.327136e-01
2.231883e-01
2.145073e-01
2.065978e-01
1.993970e-01
1.928510e-01
1.869133e-01
1.815445e-01
1.767106e-01
1.723830e-01
1.685377e-01
1.651546e-01
1.622176e-01
1.597138e-01
1.576338e-01
1.559708e-01
1.547213e-01
1.538842e-01
1.534616e-01
9.679509e-01
9.035455e-01
8.403876e-01
7.797911e-01
7.227038e-01
6.696941e-01
6.210028e-01
5.766226e-01
5.363793e-01
4.999998e-01
4.671627e-01
4.375336e-01
4.107862e-01
3.866154e-01
3.647430e-01
3.449195e-01
3.269240e-01
3.105624e-01
2.956649e-01
2.820836e-01
2.696897e-01
2.583714e-01
2.480316e-01
2.385862e-01
2.299622e-01
2.220963e-01
2.149339e-01
2.084277e-01
2.025372e-01
1.972276e-01
1.924694e-01
1.882376e-01
1.845118e-01
1.812752e-01
1.785144e-01
1.762199e-01
1.743847e-01
1.730054e-01
1.720813e-01
1.716145e-01
9.711522e-01
9.130505e-01
8.557109e-01
8.001642e-01
7.472098e-01
6.973902e-01
6.510077e-01
6.081669e-01
5.688245e-01
5.328368e-01
4.999998e-01
4.700781e-01
4.428270e-01
4.180056e-01
3.953855e-01
3.747555e-01
3.559234e-01
3.387163e-01
3.229800e-01
3.085778e-01
2.953891e-01
2.833078e-01
2.722407e-01
2.621061e-01
2.528326e-01
2.443578e-01
2.366277e-01
2.295950e-01
2.232192e-01
2.174652e-01
2.123032e-01
2.077082e-01
2.036593e-01
2.001395e-01
1.971355e-01
1.946375e-01
1.926390e-01
1.911363e-01
1.901294e-01
1.896207e-01
9.737893e-01
9.209111e-01
8.684756e-01
8.173022e-01
7.680606e-01
7.212442e-01
6.771715e-01
6.360065e-01
5.977889e-01
5.624660e-01
5.299214e-01
4.999997e-01
4.725248e-01
4.473131e-01
4.241828e-01
4.029598e-01
3.834810e-01
3.655963e-01
3.491690e-01
3.340757e-01
3.202059e-01
3.074608e-01
2.957529e-01
2.850047e-01
2.751477e-01
2.661217e-01
2.578740e-01
2.503585e-01
2.435352e-01
2.373698e-01
2.318326e-01
2.268987e-01
2.225476e-01
2.187622e-01
2.155297e-01
2.128402e-01
2.106876e-01
2.090686e-01
2.079834e-01
2.074352e-01
9.759983e-01
9.275147e-01
8.792582e-01
8.318892e-01
7.859690e-01
7.419360e-01
7.001011e-01
6.606561e-01
6.236906e-01
5.892133e-01
5.571724e-01
5.274746e-01
4.999996e-01
4.746132e-01
4.511751e-01
4.295456e-01
4.095900e-01
3.911808e-01
3.741995e-01
3.585371e-01
3.440943e-01
3.307813e-01
3.185172e-01
3.072299e-01
2.968550e-01
2.873354e-01
2.786207e-01
2.706668e-01
2.634350e-01
2.568919e-01
2.510088e-01
2.457615e-01
2.411298e-01
2.370974e-01
2.336516e-01
2.307833e-01
2.284864e-01
2.267585e-01
2.255999e-01
2.250146e-01
9.778744e-01
9.331354e-01
8.884754e-01
8.444334e-01
8.014816e-01
7.600058e-01
7.202977e-01
6.825575e-01
6.469033e-01
6.133840e-01
5.819938e-01
5.526862e-01
5.253860e-01
4.999996e-01
4.764227e-01
4.545468e-01
4.342633e-01
4.154665e-01
3.980559e-01
3.819370e-01
3.670226e-01
3.532323e-01
3.404931e-01
3.287388e-01
3.179100e-01
3.079536e-01
2.988222e-01
2.904741e-01
2.828726e-01
2.759860e-01
2.697869e-01
2.642520e-01
2.593620e-01
2.551015e-01
2.514584e-01
2.484241e-01
2.459933e-01
2.441639e-01
2.429371e-01
2.423172e-01
9.794861e-01
9.379727e-01
8.964348e-01
8.553180e-01
8.150218e-01
7.758840e-01
7.381728e-01
7.020861e-01
6.677559e-01
6.352564e-01
6.046138e-01
5.758165e-01
5.488241e-01
5.235764e-01
4.999995e-01
4.780120e-01
4.575289e-01
4.384648e-01
4.207362e-01
4.042633e-01
3.889705e-01
3.747876e-01
3.616495e-01
3.494970e-01
3.382759e-01
3.279376e-01
3.184385e-01
3.097398e-01
3.018072e-01
2.946111e-01
2.881257e-01
2.823291e-01
2.772034e-01
2.727338e-01
2.689095e-01
2.657224e-01
2.631680e-01
2.612450e-01
2.599551e-01
2.593031e-01
9.808842e-01
9.421749e-01
9.033682e-01
8.648366e-01
8.269203e-01
7.899152e-01
7.540649e-01
7.195589e-01
6.865342e-01
6.550799e-01
6.252437e-01
5.970394e-01
5.704535e-01
5.454522e-01
5.219869e-01
4.999995e-01
4.794255e-01
4.601982e-01
4.422499e-01
4.255144e-01
4.099280e-01
3.954302e-01
3.819643e-01
3.694779e-01
3.579228e-01
3.472552e-01
3.374355e-01
3.284283e-01
3.202023e-01
3.127299e-01
3.059875e-01
2.999550e-01
2.946157e-01
2.899562e-01
2.859666e-01
2.826400e-01
2.799726e-01
2.779637e-01
2.766158e-01
2.759345e-01
9.821071e-01
9.458546e-01
9.094531e-01
8.732172e-01
8.374388e-01
8.023772e-01
7.682525e-01
7.352430e-01
7.034850e-01
6.730753e-01
6.440758e-01
6.165181e-01
5.904091e-01
5.657357e-01
5.424700e-01
5.205733e-01
4.999994e-01
4.806975e-01
4.626148e-01
4.456976e-01
4.298933e-01
4.151510e-01
4.014223e-01
3.886618e-01
3.768272e-01
3.658798e-01
3.557843e-01
3.465089e-01
3.380255e-01
3.303091e-01
3.233383e-01
3.170949e-01
3.115639e-01
3.067333e-01
3.025943e-01
2.991411e-01
2.963710e-01
2.942840e-01
2.928834e-01
2.921753e-01
9.831843e-01
9.490988e-01
9.148277e-01
8.806394e-01
8.467858e-01
8.134952e-01
7.809658e-01
7.493635e-01
7.188205e-01
6.894368e-01
6.612829e-01
6.344028e-01
6.088182e-01
5.845324e-01
5.615341e-01
5.398006e-01
5.193012e-01
4.999993e-01
4.818550e-01
4.648264e-01
4.488712e-01
4.339475e-01
4.200148e-01
4.070348e-01
3.949710e-01
3.837899e-01
3.734606e-01
3.639552e-01
3.552487e-01
3.473191e-01
3.401474e-01
3.337173e-01
3.280156e-01
3.230321e-01
3.187592e-01
3.151923e-01
3.123296e-01
3.101722e-01
3.087239e-01
3.079916e-01
9.841386e-01
9.519755e-01
9.196009e-01
8.872458e-01
8.551293e-01
8.234530e-01
7.923955e-01
7.621100e-01
7.327229e-01
7.043343e-01
6.770192e-01
6.508300e-01
6.257994e-01
6.019430e-01
5.792626e-01
5.577488e-01
5.373839e-01
5.181435e-01
4.999992e-01
4.829196e-01
4.668717e-01
4.518223e-01
4.377384e-01
4.245880e-01
4.123410e-01
4.009686e-01
3.904445e-01
3.807446e-01
3.718474e-01
3.637337e-01
3.563870e-01
3.497933e-01
3.439413e-01
3.388224e-01
3.344305e-01
3.307623e-01
3.278168e-01
3.255963e-01
3.241052e-01
3.233512e-01
9.849885e-01
9.545387e-01
9.238595e-01
8.931512e-01
8.626057e-01
8.324017e-01
8.027003e-01
7.736427e-01
7.453484e-01
7.179156e-01
6.914213e-01
6.659233e-01
6.414618e-01
6.180618e-01
5.957355e-01
5.744842e-01
5.543010e-01
5.351721e-01
5.170788e-01
4.999992e-01
4.839088e-01
4.687822e-01
4.545934e-01
4.413170e-01
4.289279e-01
4.174029e-01
4.067197e-01
3.968583e-01
3.878003e-01
3.795297e-01
3.720325e-01
3.652970e-01
3.593140e-01
3.540764e-01
3.495797e-01
3.458219e-01
3.428032e-01
3.405266e-01
3.389975e-01
3.382242e-01
9.857483e-01
9.568319e-01
9.276737e-01
8.984489e-01
8.693267e-01
8.404661e-01
8.120130e-01
7.840971e-01
7.568310e-01
7.303095e-01
7.046099e-01
6.797931e-01
6.559045e-01
6.329762e-01
6.110282e-01
5.900706e-01
5.701052e-01
5.511273e-01
5.331266e-01
5.160895e-01
4.999991e-01
4.848371e-01
4.705840e-01
4.572202e-01
4.447261e-01
4.330831e-01
4.222732e-01
4.122802e-01
4.030891e-01
3.946868e-01
3.870619e-01
3.802050e-01
3.741090e-01
3.687684e-01
3.641804e-01
3.603441e-01
3.572611e-01
3.549352e-01
3.533727e-01
3.525822e-01
9.864300e-01
9.588902e-01
9.311004e-01
9.032150e-01
8.753841e-01
8.477501e-01
8.204450e-01
7.935883e-01
7.672856e-01
7.416277e-01
7.166912e-01
6.925381e-01
6.692175e-01
6.467664e-01
6.252111e-01
6.045684e-01
5.848475e-01
5.660509e-01
5.481760e-01
5.312160e-01
5.151610e-01
4.999990e-01
4.857165e-01
4.722991e-01
4.597325e-01
4.480023e-01
4.370948e-01
4.269973e-01
4.176982e-01
4.091872e-01
4.014555e-01
3.944962e-01
3.883038e-01
3.828749e-01
3.782081e-01
3.743039e-01
3.711650e-01
3.687961e-01
3.672043e-01
3.663990e-01
9.870432e-01
9.607423e-01
9.341865e-01
9.075125e-01
8.808543e-01
8.543402e-01
8.280900e-01
8.022140e-01
7.768109e-01
7.519674e-01
7.277583e-01
7.042459e-01
6.814815e-01
6.595056e-01
6.383490e-01
6.180342e-01
5.985761e-01
5.799834e-01
5.622598e-01
5.454047e-01
5.294140e-01
5.142815e-01
4.999989e-01
4.865571e-01
4.739461e-01
4.621558e-01
4.511764e-01
4.409987e-01
4.316141e-01
4.230153e-01
4.151960e-01
4.081513e-01
4.018780e-01
3.963743e-01
3.916404e-01
3.876780e-01
3.844910e-01
3.820850e-01
3.804680e-01
3.796498e-01
9.875958e-01
9.624120e-01
9.369705e-01
9.113934e-01
8.858010e-01
8.603091e-01
8.350275e-01
8.100575e-01
7.854918e-01
7.614128e-01
7.378929e-01
7.149941e-01
6.927688e-01
6.712598e-01
6.505015e-01
6.305205e-01
6.113366e-01
5.929635e-01
5.754101e-01
5.586811e-01
5.427778e-01
5.276987e-01
5.134407e-01
4.999988e-01
4.873675e-01
4.755406e-01
4.645119e-01
4.542753e-01
4.448253e-01
4.361573e-01
4.282675e-01
4.211532e-01
4.148129e-01
4.092468e-01
4.044564e-01
4.004448e-01
3.972169e-01
3.947793e-01
3.931407e-01
3.923114e-01
9.880943e-01
9.639189e-01
9.394845e-01
9.149011e-01
8.902773e-01
8.657183e-01
8.413245e-01
8.171900e-01
7.934013e-01
7.700368e-01
7.471663e-01
7.248511e-01
7.031437e-01
6.820886e-01
6.617226e-01
6.420755e-01
6.231711e-01
6.050272e-01
5.876571e-01
5.710700e-01
5.552717e-01
5.402653e-01
5.260516e-01
5.126301e-01
4.999988e-01
4.881552e-01
4.770964e-01
4.668195e-01
4.573218e-01
4.486012e-01
4.406561e-01
4.334861e-01
4.270915e-01
4.214741e-01
4.166369e-01
4.125842e-01
4.093219e-01
4.068578e-01
4.052008e-01
4.043623e-01
9.885443e-01
9.652793e-01
9.417555e-01
9.180722e-01
8.943280e-01
8.706192e-01
8.470382e-01
8.236720e-01
8.006021e-01
7.779026e-01
7.556410e-01
7.338771e-01
7.126633e-01
6.920450e-01
6.720608e-01
6.527431e-01
6.341184e-01
6.162082e-01
5.990294e-01
5.825951e-01
5.669147e-01
5.519954e-01
5.378419e-01
5.244569e-01
5.118423e-01
4.999987e-01
4.889263e-01
4.786250e-01
4.690948e-01
4.603359e-01
4.523491e-01
4.451357e-01
4.386980e-01
4.330393e-01
4.281639e-01
4.240774e-01
4.207868e-01
4.183005e-01
4.166283e-01
4.157820e-01
9.889502e-01
9.665070e-01
9.438058e-01
9.209371e-01
8.979910e-01
8.750559e-01
8.522170e-01
8.295556e-01
8.071481e-01
7.850650e-01
7.633711e-01
7.421247e-01
7.213779e-01
7.011763e-01
6.815599e-01
6.625628e-01
6.442139e-01
6.265375e-01
6.095535e-01
5.932781e-01
5.777245e-01
5.629028e-01
5.488211e-01
5.354856e-01
5.229010e-01
5.110710e-01
4.999986e-01
4.896863e-01
4.801366e-01
4.713518e-01
4.633348e-01
4.560889e-01
4.496179e-01
4.439266e-01
4.390207e-01
4.349069e-01
4.315932e-01
4.290888e-01
4.274042e-01
4.265514e-01
9.893160e-01
9.676134e-01
9.456543e-01
9.235216e-01
9.012980e-01
8.790652e-01
8.569022e-01
8.348851e-01
8.130857e-01
7.915712e-01
7.704038e-01
7.496402e-01
7.293318e-01
7.095244e-01
6.902586e-01
6.715699e-01
6.534892e-01
6.360428e-01
6.192533e-01
6.031395e-01
5.877175e-01
5.730003e-01
5.589988e-01
5.457222e-01
5.331778e-01
5.213722e-01
5.103108e-01
4.999985e-01
4.904400e-01
4.816398e-01
4.736026e-01
4.663333e-01
4.598375e-01
4.541213e-01
4.491916e-01
4.450563e-01
4.417242e-01
4.392052e-01
4.375104e-01
4.366524e-01
9.896448e-01
9.686081e-01
9.473169e-01
9.258473e-01
9.042760e-01
8.826786e-01
8.611290e-01
8.396983e-01
8.184545e-01
7.974617e-01
7.767796e-01
7.564634e-01
7.365636e-01
7.171258e-01
6.981911e-01
6.797959e-01
6.619726e-01
6.447492e-01
6.281504e-01
6.121974e-01
5.969085e-01
5.822993e-01
5.683833e-01
5.551720e-01
5.426755e-01
5.309024e-01
5.198605e-01
5.095570e-01
4.999985e-01
4.911914e-01
4.831421e-01
4.758574e-01
4.693440e-01
4.636094e-01
4.586617e-01
4.545098e-01
4.511633e-01
4.486328e-01
4.469301e-01
4.460679e-01
9.899394e-01
9.694993e-01
9.488068e-01
9.279325e-01
9.069476e-01
8.859227e-01
8.649269e-01
8.440273e-01
8.232884e-01
8.027713e-01
7.825336e-01
7.626288e-01
7.431066e-01
7.240123e-01
7.053871e-01
6.872682e-01
6.696889e-01
6.526788e-01
6.362641e-01
6.204680e-01
6.053108e-01
5.908103e-01
5.769821e-01
5.638400e-01
5.513960e-01
5.396612e-01
5.286452e-01
5.183571e-01
5.088055e-01
4.999984e-01
4.919439e-01
4.846500e-01
4.781250e-01
4.723776e-01
4.674168e-01
4.632525e-01
4.598950e-01
4.573557e-01
4.556468e-01
4.547814e-01
9.902019e-01
9.702937e-01
9.501352e-01
9.297925e-01
9.093319e-01
8.888196e-01
8.683209e-01
8.478993e-01
8.276159e-01
8.075295e-01
7.876955e-01
7.681660e-01
7.489897e-01
7.302115e-01
7.118725e-01
6.940106e-01
6.766596e-01
6.598505e-01
6.436108e-01
6.279652e-01
6.129357e-01
5.985419e-01
5.848014e-01
5.717297e-01
5.593410e-01
5.476480e-01
5.366621e-01
5.263943e-01
5.168547e-01
5.080529e-01
4.999983e-01
4.927005e-01
4.861688e-01
4.804130e-01
4.754432e-01
4.712700e-01
4.679045e-01
4.653586e-01
4.636450e-01
4.627772e-01
9.904342e-01
9.709969e-01
9.513115e-01
9.314399e-01
9.114446e-01
8.913882e-01
8.713322e-01
8.513370e-01
8.314613e-01
8.117612e-01
7.922904e-01
7.730998e-01
7.542370e-01
7.357463e-01
7.176691e-01
7.000431e-01
6.829030e-01
6.662806e-01
6.502044e-01
6.347006e-01
6.197925e-01
6.055012e-01
5.918460e-01
5.788440e-01
5.665110e-01
5.548613e-01
5.439080e-01
5.336635e-01
5.241394e-01
5.153467e-01
5.072961e-01
4.999983e-01
4.934637e-01
4.877032e-01
4.827276e-01
4.785483e-01
4.751772e-01
4.726266e-01
4.709096e-01
4.700399e-01
9.906379e-01
9.716136e-01
9.523431e-01
9.328852e-01
9.132990e-01
8.936436e-01
8.739779e-01
8.543594e-01
8.348443e-01
8.154870e-01
7.963394e-01
7.774510e-01
7.588686e-01
7.406363e-01
7.227948e-01
7.053824e-01
6.884341e-01
6.719822e-01
6.560564e-01
6.406836e-01
6.258885e-01
6.116936e-01
5.981193e-01
5.851842e-01
5.729055e-01
5.612989e-01
5.503790e-01
5.401593e-01
5.306528e-01
5.218716e-01
5.138278e-01
5.065328e-01
4.999982e-01
4.942357e-01
4.892569e-01
4.850738e-01
4.816989e-01
4.791451e-01
4.774257e-01
4.765548e-01
9.908143e-01
9.721474e-01
9.532364e-01
9.341370e-01
9.149056e-01
8.955985e-01
8.762721e-01
8.569817e-01
8.377813e-01
8.187236e-01
7.998592e-01
7.812363e-01
7.629010e-01
7.448967e-01
7.272643e-01
7.100418e-01
6.932646e-01
6.769657e-01
6.611752e-01
6.459211e-01
6.312290e-01
6.171224e-01
6.036229e-01
5.907503e-01
5.785229e-01
5.669576e-01
5.560702e-01
5.458755e-01
5.363873e-01
5.276190e-01
5.195835e-01
5.122933e-01
5.057607e-01
4.999982e-01
4.950181e-01
4.908330e-01
4.874558e-01
4.848999e-01
4.831789e-01
4.823072e-01
9.909643e-01
9.726014e-01
9.539963e-01
9.352021e-01
9.162728e-01
8.972628e-01
8.782260e-01
8.592160e-01
8.402851e-01
8.214843e-01
8.028631e-01
7.844688e-01
7.663467e-01
7.485398e-01
7.310887e-01
7.140314e-01
6.974036e-01
6.812385e-01
6.655671e-01
6.504178e-01
6.358170e-01
6.217892e-01
6.083568e-01
5.955407e-01
5.833601e-01
5.718330e-01
5.609761e-01
5.508051e-01
5.413349e-01
5.325797e-01
5.245533e-01
5.172688e-01
5.107395e-01
5.049783e-01
4.999981e-01
4.958122e-01
4.924339e-01
4.898767e-01
4.881548e-01
4.872825e-01
9.910886e-01
9.729779e-01
9.546264e-01
9.360854e-01
9.174071e-01
8.986438e-01
8.798480e-01
8.610714e-01
8.423651e-01
8.237789e-01
8.053611e-01
7.871583e-01
7.692151e-01
7.515741e-01
7.342757e-01
7.173580e-01
7.008567e-01
6.848054e-01
6.692353e-01
6.541756e-01
6.396532e-01
6.256933e-01
6.123191e-01
5.995523e-01
5.874128e-01
5.759195e-01
5.650898e-01
5.549404e-01
5.454868e-01
5.367441e-01
5.287265e-01
5.214481e-01
5.149225e-01
5.091633e-01
5.041840e-01
4.999981e-01
4.966193e-01
4.940615e-01
4.923391e-01
4.914665e-01
9.911879e-01
9.732784e-01
9.551294e-01
9.367907e-01
9.183128e-01
8.997469e-01
8.811439e-01
8.625543e-01
8.440281e-01
8.256140e-01
8.073597e-01
7.893109e-01
7.715119e-01
7.540049e-01
7.368301e-01
7.200254e-01
7.036268e-01
6.876681e-01
6.721807e-01
6.571943e-01
6.427363e-01
6.288323e-01
6.155062e-01
6.027802e-01
5.906750e-01
5.792100e-01
5.684035e-01
5.582725e-01
5.488333e-01
5.401015e-01
5.320920e-01
5.248192e-01
5.182974e-01
5.125405e-01
5.075624e-01
5.033769e-01
4.999981e-01
4.974401e-01
4.957174e-01
4.948446e-01
9.912624e-01
9.735039e-01
9.555069e-01
9.373200e-01
9.189928e-01
9.005752e-01
8.821171e-01
8.636682e-01
8.452776e-01
8.269933e-01
8.088623e-01
7.909299e-01
7.732399e-01
7.558343e-01
7.387531e-01
7.220343e-01
7.057138e-01
6.898255e-01
6.744013e-01
6.594709e-01
6.450622e-01
6.312011e-01
6.179121e-01
6.052177e-01
5.931392e-01
5.816964e-01
5.709079e-01
5.607915e-01
5.513638e-01
5.426408e-01
5.346378e-01
5.273698e-01
5.208512e-01
5.150964e-01
5.101195e-01
5.059346e-01
5.025560e-01
4.999981e-01
4.982753e-01
4.974025e-01
9.913122e-01
9.736548e-01
9.557596e-01
9.376744e-01
9.194481e-01
9.011298e-01
8.827688e-01
8.644143e-01
8.461146e-01
8.279175e-01
8.098693e-01
7.920151e-01
7.743984e-01