# vtk DataFile Version 3.0
9.SOU_1Pe = 1e+08,Grid 41x41,000294.vtk
ASCII
DATASET STRUCTURED_GRID
DIMENSIONS 41 41 1
POINTS 1681 double
0.000000e+00 0.000000e+00 0.0
2.500000e-02 0.000000e+00 0.0
5.000000e-02 0.000000e+00 0.0
7.500000e-02 0.000000e+00 0.0
1.000000e-01 0.000000e+00 0.0
1.250000e-01 0.000000e+00 0.0
1.500000e-01 0.000000e+00 0.0
1.750000e-01 0.000000e+00 0.0
2.000000e-01 0.000000e+00 0.0
2.250000e-01 0.000000e+00 0.0
2.500000e-01 0.000000e+00 0.0
2.750000e-01 0.000000e+00 0.0
3.000000e-01 0.000000e+00 0.0
3.250000e-01 0.000000e+00 0.0
3.500000e-01 0.000000e+00 0.0
3.750000e-01 0.000000e+00 0.0
4.000000e-01 0.000000e+00 0.0
4.250000e-01 0.000000e+00 0.0
4.500000e-01 0.000000e+00 0.0
4.750000e-01 0.000000e+00 0.0
5.000000e-01 0.000000e+00 0.0
5.250000e-01 0.000000e+00 0.0
5.500000e-01 0.000000e+00 0.0
5.750000e-01 0.000000e+00 0.0
6.000000e-01 0.000000e+00 0.0
6.250000e-01 0.000000e+00 0.0
6.500000e-01 0.000000e+00 0.0
6.750000e-01 0.000000e+00 0.0
7.000000e-01 0.000000e+00 0.0
7.250000e-01 0.000000e+00 0.0
7.500000e-01 0.000000e+00 0.0
7.750000e-01 0.000000e+00 0.0
8.000000e-01 0.000000e+00 0.0
8.250000e-01 0.000000e+00 0.0
8.500000e-01 0.000000e+00 0.0
8.750000e-01 0.000000e+00 0.0
9.000000e-01 0.000000e+00 0.0
9.250000e-01 0.000000e+00 0.0
9.500000e-01 0.000000e+00 0.0
9.750000e-01 0.000000e+00 0.0
1.000000e+00 0.000000e+00 0.0
0.000000e+00 2.500000e-02 0.0
2.500000e-02 2.500000e-02 0.0
5.000000e-02 2.500000e-02 0.0
7.500000e-02 2.500000e-02 0.0
1.000000e-01 2.500000e-02 0.0
1.250000e-01 2.500000e-02 0.0
1.500000e-01 2.500000e-02 0.0
1.750000e-01 2.500000e-02 0.0
2.000000e-01 2.500000e-02 0.0
2.250000e-01 2.500000e-02 0.0
2.500000e-01 2.500000e-02 0.0
2.750000e-01 2.500000e-02 0.0
3.000000e-01 2.500000e-02 0.0
3.250000e-01 2.500000e-02 0.0
3.500000e-01 2.500000e-02 0.0
3.750000e-01 2.500000e-02 0.0
4.000000e-01 2.500000e-02 0.0
4.250000e-01 2.500000e-02 0.0
4.500000e-01 2.500000e-02 0.0
4.750000e-01 2.500000e-02 0.0
5.000000e-01 2.500000e-02 0.0
5.250000e-01 2.500000e-02 0.0
5.500000e-01 2.500000e-02 0.0
5.750000e-01 2.500000e-02 0.0
6.000000e-01 2.500000e-02 0.0
6.250000e-01 2.500000e-02 0.0
6.500000e-01 2.500000e-02 0.0
6.750000e-01 2.500000e-02 0.0
7.000000e-01 2.500000e-02 0.0
7.250000e-01 2.500000e-02 0.0
7.500000e-01 2.500000e-02 0.0
7.750000e-01 2.500000e-02 0.0
8.000000e-01 2.500000e-02 0.0
8.250000e-01 2.500000e-02 0.0
8.500000e-01 2.500000e-02 0.0
8.750000e-01 2.500000e-02 0.0
9.000000e-01 2.500000e-02 0.0
9.250000e-01 2.500000e-02 0.0
9.500000e-01 2.500000e-02 0.0
9.750000e-01 2.500000e-02 0.0
1.000000e+00 2.500000e-02 0.0
0.000000e+00 5.000000e-02 0.0
2.500000e-02 5.000000e-02 0.0
5.000000e-02 5.000000e-02 0.0
7.500000e-02 5.000000e-02 0.0
1.000000e-01 5.000000e-02 0.0
1.250000e-01 5.000000e-02 0.0
1.500000e-01 5.000000e-02 0.0
1.750000e-01 5.000000e-02 0.0
2.000000e-01 5.000000e-02 0.0
2.250000e-01 5.000000e-02 0.0
2.500000e-01 5.000000e-02 0.0
2.750000e-01 5.000000e-02 0.0
3.000000e-01 5.000000e-02 0.0
3.250000e-01 5.000000e-02 0.0
3.500000e-01 5.000000e-02 0.0
3.750000e-01 5.000000e-02 0.0
4.000000e-01 5.000000e-02 0.0
4.250000e-01 5.000000e-02 0.0
4.500000e-01 5.000000e-02 0.0
4.750000e-01 5.000000e-02 0.0
5.000000e-01 5.000000e-02 0.0
5.250000e-01 5.000000e-02 0.0
5.500000e-01 5.000000e-02 0.0
5.750000e-01 5.000000e-02 0.0
6.000000e-01 5.000000e-02 0.0
6.250000e-01 5.000000e-02 0.0
6.500000e-01 5.000000e-02 0.0
6.750000e-01 5.000000e-02 0.0
7.000000e-01 5.000000e-02 0.0
7.250000e-01 5.000000e-02 0.0
7.500000e-01 5.000000e-02 0.0
7.750000e-01 5.000000e-02 0.0
8.000000e-01 5.000000e-02 0.0
8.250000e-01 5.000000e-02 0.0
8.500000e-01 5.000000e-02 0.0
8.750000e-01 5.000000e-02 0.0
9.000000e-01 5.000000e-02 0.0
9.250000e-01 5.000000e-02 0.0
9.500000e-01 5.000000e-02 0.0
9.750000e-01 5.000000e-02 0.0
1.000000e+00 5.000000e-02 0.0
0.000000e+00 7.500000e-02 0.0
2.500000e-02 7.500000e-02 0.0
5.000000e-02 7.500000e-02 0.0
7.500000e-02 7.500000e-02 0.0
1.000000e-01 7.500000e-02 0.0
1.250000e-01 7.500000e-02 0.0
1.500000e-01 7.500000e-02 0.0
1.750000e-01 7.500000e-02 0.0
2.000000e-01 7.500000e-02 0.0
2.250000e-01 7.500000e-02 0.0
2.500000e-01 7.500000e-02 0.0
2.750000e-01 7.500000e-02 0.0
3.000000e-01 7.500000e-02 0.0
3.250000e-01 7.500000e-02 0.0
3.500000e-01 7.500000e-02 0.0
3.750000e-01 7.500000e-02 0.0
4.000000e-01 7.500000e-02 0.0
4.250000e-01 7.500000e-02 0.0
4.500000e-01 7.500000e-02 0.0
4.750000e-01 7.500000e-02 0.0
5.000000e-01 7.500000e-02 0.0
5.250000e-01 7.500000e-02 0.0
5.500000e-01 7.500000e-02 0.0
5.750000e-01 7.500000e-02 0.0
6.000000e-01 7.500000e-02 0.0
6.250000e-01 7.500000e-02 0.0
6.500000e-01 7.500000e-02 0.0
6.750000e-01 7.500000e-02 0.0
7.000000e-01 7.500000e-02 0.0
7.250000e-01 7.500000e-02 0.0
7.500000e-01 7.500000e-02 0.0
7.750000e-01 7.500000e-02 0.0
8.000000e-01 7.500000e-02 0.0
8.250000e-01 7.500000e-02 0.0
8.500000e-01 7.500000e-02 0.0
8.750000e-01 7.500000e-02 0.0
9.000000e-01 7.500000e-02 0.0
9.250000e-01 7.500000e-02 0.0
9.500000e-01 7.500000e-02 0.0
9.750000e-01 7.500000e-02 0.0
1.000000e+00 7.500000e-02 0.0
0.000000e+00 1.000000e-01 0.0
2.500000e-02 1.000000e-01 0.0
5.000000e-02 1.000000e-01 0.0
7.500000e-02 1.000000e-01 0.0
1.000000e-01 1.000000e-01 0.0
1.250000e-01 1.000000e-01 0.0
1.500000e-01 1.000000e-01 0.0
1.750000e-01 1.000000e-01 0.0
2.000000e-01 1.000000e-01 0.0
2.250000e-01 1.000000e-01 0.0
2.500000e-01 1.000000e-01 0.0
2.750000e-01 1.000000e-01 0.0
3.000000e-01 1.000000e-01 0.0
3.250000e-01 1.000000e-01 0.0
3.500000e-01 1.000000e-01 0.0
3.750000e-01 1.000000e-01 0.0
4.000000e-01 1.000000e-01 0.0
4.250000e-01 1.000000e-01 0.0
4.500000e-01 1.000000e-01 0.0
4.750000e-01 1.000000e-01 0.0
5.000000e-01 1.000000e-01 0.0
5.250000e-01 1.000000e-01 0.0
5.500000e-01 1.000000e-01 0.0
5.750000e-01 1.000000e-01 0.0
6.000000e-01 1.000000e-01 0.0
6.250000e-01 1.000000e-01 0.0
6.500000e-01 1.000000e-01 0.0
6.750000e-01 1.000000e-01 0.0
7.000000e-01 1.000000e-01 0.0
7.250000e-01 1.000000e-01 0.0
7.500000e-01 1.000000e-01 0.0
7.750000e-01 1.000000e-01 0.0
8.000000e-01 1.000000e-01 0.0
8.250000e-01 1.000000e-01 0.0
8.500000e-01 1.000000e-01 0.0
8.750000e-01 1.000000e-01 0.0
9.000000e-01 1.000000e-01 0.0
9.250000e-01 1.000000e-01 0.0
9.500000e-01 1.000000e-01 0.0
9.750000e-01 1.000000e-01 0.0
1.000000e+00 1.000000e-01 0.0
0.000000e+00 1.250000e-01 0.0
2.500000e-02 1.250000e-01 0.0
5.000000e-02 1.250000e-01 0.0
7.500000e-02 1.250000e-01 0.0
1.000000e-01 1.250000e-01 0.0
1.250000e-01 1.250000e-01 0.0
1.500000e-01 1.250000e-01 0.0
1.750000e-01 1.250000e-01 0.0
2.000000e-01 1.250000e-01 0.0
2.250000e-01 1.250000e-01 0.0
2.500000e-01 1.250000e-01 0.0
2.750000e-01 1.250000e-01 0.0
3.000000e-01 1.250000e-01 0.0
3.250000e-01 1.250000e-01 0.0
3.500000e-01 1.250000e-01 0.0
3.750000e-01 1.250000e-01 0.0
4.000000e-01 1.250000e-01 0.0
4.250000e-01 1.250000e-01 0.0
4.500000e-01 1.250000e-01 0.0
4.750000e-01 1.250000e-01 0.0
5.000000e-01 1.250000e-01 0.0
5.250000e-01 1.250000e-01 0.0
5.500000e-01 1.250000e-01 0.0
5.750000e-01 1.250000e-01 0.0
6.000000e-01 1.250000e-01 0.0
6.250000e-01 1.250000e-01 0.0
6.500000e-01 1.250000e-01 0.0
6.750000e-01 1.250000e-01 0.0
7.000000e-01 1.250000e-01 0.0
7.250000e-01 1.250000e-01 0.0
7.500000e-01 1.250000e-01 0.0
7.750000e-01 1.250000e-01 0.0
8.000000e-01 1.250000e-01 0.0
8.250000e-01 1.250000e-01 0.0
8.500000e-01 1.250000e-01 0.0
8.750000e-01 1.250000e-01 0.0
9.000000e-01 1.250000e-01 0.0
9.250000e-01 1.250000e-01 0.0
9.500000e-01 1.250000e-01 0.0
9.750000e-01 1.250000e-01 0.0
1.000000e+00 1.250000e-01 0.0
0.000000e+00 1.500000e-01 0.0
2.500000e-02 1.500000e-01 0.0
5.000000e-02 1.500000e-01 0.0
7.500000e-02 1.500000e-01 0.0
1.000000e-01 1.500000e-01 0.0
1.250000e-01 1.500000e-01 0.0
1.500000e-01 1.500000e-01 0.0
1.750000e-01 1.500000e-01 0.0
2.000000e-01 1.500000e-01 0.0
2.250000e-01 1.500000e-01 0.0
2.500000e-01 1.500000e-01 0.0
2.750000e-01 1.500000e-01 0.0
3.000000e-01 1.500000e-01 0.0
3.250000e-01 1.500000e-01 0.0
3.500000e-01 1.500000e-01 0.0
3.750000e-01 1.500000e-01 0.0
4.000000e-01 1.500000e-01 0.0
4.250000e-01 1.500000e-01 0.0
4.500000e-01 1.500000e-01 0.0
4.750000e-01 1.500000e-01 0.0
5.000000e-01 1.500000e-01 0.0
5.250000e-01 1.500000e-01 0.0
5.500000e-01 1.500000e-01 0.0
5.750000e-01 1.500000e-01 0.0
6.000000e-01 1.500000e-01 0.0
6.250000e-01 1.500000e-01 0.0
6.500000e-01 1.500000e-01 0.0
6.750000e-01 1.500000e-01 0.0
7.000000e-01 1.500000e-01 0.0
7.250000e-01 1.500000e-01 0.0
7.500000e-01 1.500000e-01 0.0
7.750000e-01 1.500000e-01 0.0
8.000000e-01 1.500000e-01 0.0
8.250000e-01 1.500000e-01 0.0
8.500000e-01 1.500000e-01 0.0
8.750000e-01 1.500000e-01 0.0
9.000000e-01 1.500000e-01 0.0
9.250000e-01 1.500000e-01 0.0
9.500000e-01 1.500000e-01 0.0
9.750000e-01 1.500000e-01 0.0
1.000000e+00 1.500000e-01 0.0
0.000000e+00 1.750000e-01 0.0
2.500000e-02 1.750000e-01 0.0
5.000000e-02 1.750000e-01 0.0
7.500000e-02 1.750000e-01 0.0
1.000000e-01 1.750000e-01 0.0
1.250000e-01 1.750000e-01 0.0
1.500000e-01 1.750000e-01 0.0
1.750000e-01 1.750000e-01 0.0
2.000000e-01 1.750000e-01 0.0
2.250000e-01 1.750000e-01 0.0
2.500000e-01 1.750000e-01 0.0
2.750000e-01 1.750000e-01 0.0
3.000000e-01 1.750000e-01 0.0
3.250000e-01 1.750000e-01 0.0
3.500000e-01 1.750000e-01 0.0
3.750000e-01 1.750000e-01 0.0
4.000000e-01 1.750000e-01 0.0
4.250000e-01 1.750000e-01 0.0
4.500000e-01 1.750000e-01 0.0
4.750000e-01 1.750000e-01 0.0
5.000000e-01 1.750000e-01 0.0
5.250000e-01 1.750000e-01 0.0
5.500000e-01 1.750000e-01 0.0
5.750000e-01 1.750000e-01 0.0
6.000000e-01 1.750000e-01 0.0
6.250000e-01 1.750000e-01 0.0
6.500000e-01 1.750000e-01 0.0
6.750000e-01 1.750000e-01 0.0
7.000000e-01 1.750000e-01 0.0
7.250000e-01 1.750000e-01 0.0
7.500000e-01 1.750000e-01 0.0
7.750000e-01 1.750000e-01 0.0
8.000000e-01 1.750000e-01 0.0
8.250000e-01 1.750000e-01 0.0
8.500000e-01 1.750000e-01 0.0
8.750000e-01 1.750000e-01 0.0
9.000000e-01 1.750000e-01 0.0
9.250000e-01 1.750000e-01 0.0
9.500000e-01 1.750000e-01 0.0
9.750000e-01 1.750000e-01 0.0
1.000000e+00 1.750000e-01 0.0
[...]
CELL_DATA 1600
SCALARS Temperature double 1
LOOKUP_TABLE default
5.000000e-01
3.571428e-01
1.326530e-01
2.478135e-02
-4.789642e-03
-6.277128e-03
-2.902696e-03
-7.619521e-04
-2.073093e-05
9.700383e-05
5.839230e-05
1.950936e-05
2.806468e-06
-1.183346e-06
-1.077120e-06
-4.464474e-07
-1.012390e-07
5.927103e-09
1.784952e-08
9.352970e-09
2.794625e-09
2.607952e-10
-2.502032e-10
-1.802285e-10
-6.724416e-11
-1.267833e-11
2.361485e-12
3.160575e-12
1.468675e-12
3.877295e-13
1.174932e-14
-4.867535e-14
-2.949258e-14
-9.899139e-15
-1.443395e-15
5.893622e-16
5.429707e-16
2.260702e-16
5.161419e-17
-1.187141e-17
6.428572e-01
5.000000e-01
3.367346e-01
1.618076e-01
4.775793e-02
-3.602320e-04
-1.061872e-02
-7.654064e-03
-3.350201e-03
-8.769542e-04
2.239037e-05
1.773436e-04
1.168360e-04
4.734734e-05
1.119465e-05
-8.001560e-07
-2.483575e-06
-1.517418e-06
-5.828089e-07
-1.278426e-07
1.423514e-08
3.101447e-08
1.809529e-08
6.744270e-09
1.424267e-09
-1.850962e-10
-3.588068e-10
-2.057215e-10
-7.612275e-11
-1.613858e-11
1.937831e-12
3.941079e-12
2.279838e-12
8.547983e-13
1.886909e-13
-1.618082e-14
-4.178312e-14
-2.497023e-14
-9.639981e-15
-8.018316e-16
8.673470e-01
6.632654e-01
5.000000e-01
3.265306e-01
1.669906e-01
5.771138e-02
4.047135e-03
-1.189618e-02
-1.083532e-02
-5.841654e-03
-2.083356e-03
-3.003180e-04
2.244366e-04
2.314395e-04
1.245295e-04
4.398743e-05
6.931215e-06
-3.723021e-06
-4.028729e-06
-2.152104e-06
-7.542574e-07
-1.235219e-07
5.546670e-08
6.209097e-08
3.311026e-08
1.160374e-08
1.977862e-09
-7.530543e-10
-8.826726e-10
-4.737632e-10
-1.674404e-10
-3.003101e-11
9.410811e-12
1.185055e-11
6.457936e-12
2.319317e-12
4.419452e-13
-1.086065e-13
-1.524970e-13
-7.041609e-14
9.752186e-01
8.381924e-01
6.734694e-01
5.000000e-01
3.244559e-01
1.715049e-01
6.472851e-02
7.913095e-03
-1.217786e-02
-1.318570e-02
-8.153457e-03
-3.467792e-03
-8.228011e-04
1.758326e-04
3.355090e-04
2.238255e-04
9.833364e-05
2.602242e-05
-1.629328e-06
-6.836713e-06
-4.791465e-06
-2.142376e-06
-5.957118e-07
1.909454e-10
1.212486e-07
8.856726e-08
4.021513e-08
1.158115e-08
4.424894e-10
-1.948348e-09
-1.484597e-09
-6.856844e-10
-2.037966e-10
-1.382591e-11
2.902262e-11
2.320164e-11
1.093226e-11
3.352994e-12
3.132317e-13
-5.388317e-13
1.004790e+00
9.522421e-01
8.330094e-01
6.755441e-01
5.000000e-01
3.254607e-01
1.761183e-01
7.042686e-02
1.128552e-02
-1.203098e-02
-1.498998e-02
-1.024997e-02
-4.920921e-03
-1.493639e-03
2.731129e-05
4.090329e-04
3.325373e-04
1.714882e-04
5.848784e-05
6.211432e-06
-8.675610e-06
-8.226640e-06
-4.444878e-06
-1.602368e-06
-2.521188e-07
1.560927e-07
1.725620e-07
9.687217e-08
3.626325e-08
6.810215e-09
-2.465549e-09
-3.230851e-09
-1.880409e-09
-7.263240e-10
-1.525427e-10
3.443992e-11
5.559821e-11
3.357892e-11
1.335383e-11
8.795394e-13
1.006277e+00
1.000360e+00
9.422886e-01
8.284951e-01
6.745393e-01
5.000000e-01
3.275342e-01
1.806552e-01
7.540112e-02
1.433518e-02
-1.164447e-02
-1.640752e-02
-1.214108e-02
-6.384533e-03
-2.270554e-03
-2.142299e-04
4.409079e-04
4.396319e-04
2.588667e-04
1.045863e-04
2.159461e-05
-8.161993e-06
-1.190439e-05
-7.644207e-06
-3.300361e-06
-8.369067e-07
1.004607e-07
2.691093e-07
1.867645e-07
8.452303e-08
2.382503e-08
-2.434257e-10
-5.352758e-09
-4.009846e-09
-1.887637e-09
-5.710248e-10
-3.083394e-11
9.644185e-11
7.828389e-11
2.849340e-11
1.002903e+00
1.010619e+00
9.959529e-01
9.352715e-01
8.238817e-01
6.724658e-01
5.000000e-01
3.299547e-01
1.850230e-01
7.991817e-02
1.717698e-02
-1.109838e-02
-1.753565e-02
-1.384811e-02
-7.827724e-03
-3.121457e-03
-5.378354e-04
4.261919e-04
5.365969e-04
3.553882e-04
1.633351e-04
4.558848e-05
-4.025616e-06
-1.511089e-05
-1.156121e-05
-5.772947e-06
-1.883551e-06
-1.302826e-07
3.455356e-07
3.072844e-07
1.635613e-07
5.820305e-08
8.286731e-09
-6.728187e-09
-7.099579e-09
-3.998112e-09
-1.511968e-09
-2.829294e-10
1.133385e-10
1.472078e-10
1.000762e+00
1.007654e+00
1.011896e+00
9.920869e-01
9.295731e-01
8.193448e-01
6.700453e-01
5.000000e-01
3.324409e-01
1.891836e-01
8.410763e-02
1.987684e-02
-1.043362e-02
-1.843654e-02
-1.539214e-02
-9.233939e-03
-4.022645e-03
-9.319183e-04
3.637483e-04
6.173128e-04
4.562081e-04
2.330059e-04
7.860298e-05
4.767796e-06
-1.707937e-05
-1.589002e-05
-9.019232e-06
-3.496193e-06
-6.283612e-07
3.545599e-07
4.461700e-07
2.771960e-07
1.168523e-07
2.788510e-08
-5.303747e-09
-1.075358e-08
-7.287936e-09
-3.271055e-09
-9.035367e-10
2.241559e-10
1.000021e+00
1.003350e+00
1.010835e+00
1.012178e+00
9.887145e-01
9.245989e-01
8.149770e-01
6.675591e-01
5.000000e-01
3.348762e-01
1.931264e-01
8.803920e-02
2.247194e-02
-9.674900e-03
-1.915206e-02
-1.679127e-02
-1.059430e-02
-4.956630e-03
-1.385639e-03
2.546556e-04
6.776262e-04
5.570474e-04
3.115002e-04
1.205226e-04
1.897237e-05
-1.707003e-05
-2.024097e-05
-1.295806e-05
-5.741708e-06
-1.482972e-06
2.384893e-07
5.812514e-07
4.242731e-07
2.056850e-07
6.405863e-08
1.922248e-09
-1.400156e-08
-1.178829e-08
-6.146518e-09
-1.180371e-09
9.999030e-01
1.000877e+00
1.005842e+00
1.013186e+00
1.012031e+00
9.856648e-01
9.200818e-01
8.108164e-01
6.651238e-01
5.000000e-01
3.372124e-01
1.968549e-01
9.175479e-02
2.498355e-02
-8.839442e-03
-1.971207e-02
-1.806056e-02
-1.190413e-02
-5.910378e-03
-1.889346e-03
1.012143e-04
7.148975e-04
6.542955e-04
3.966012e-04
1.708464e-04
3.906576e-05
-1.442131e-05
-2.418117e-05
-1.744030e-05
-8.644418e-06
-2.771598e-06
-6.569547e-08
6.815090e-07
5.977643e-07
3.285144e-07
1.224561e-07
1.876531e-08
-1.521281e-08
-1.721651e-08
-8.276475e-09
9.999416e-01
9.999776e-01
1.002083e+00
1.008153e+00
1.014990e+00
1.011644e+00
9.828230e-01
9.158924e-01
8.068736e-01
6.627876e-01
5.000000e-01
3.394321e-01
2.003793e-01
9.528238e-02
2.742410e-02
-7.940493e-03
-2.013900e-02
-1.921256e-02
-1.316119e-02
-6.874039e-03
-2.434624e-03
-9.365290e-05
7.276153e-04
7.449992e-04
4.861325e-04
2.288107e-04
6.527770e-05
-8.577719e-06
-2.726800e-05
-2.226483e-05
-1.218603e-05
-4.553892e-06
-6.212968e-07
7.090122e-07
7.845573e-07
4.861865e-07
2.082087e-07
4.959759e-08
-1.208961e-08
-2.355838e-08
9.999805e-01
9.998227e-01
1.000300e+00
1.003468e+00
1.010250e+00
1.016408e+00
1.011098e+00
9.801232e-01
9.119608e-01
8.031451e-01
6.605679e-01
5.000000e-01
3.415324e-01
2.037126e-01
9.864233e-02
2.980115e-02
-6.988854e-03
-2.045044e-02
-2.025788e-02
-1.436465e-02
-7.840070e-03
-3.014192e-03
-3.267558e-04
7.150936e-04
8.268021e-04
5.780486e-04
2.934875e-04
9.762864e-05
8.992610e-07
-2.907440e-05
-2.719490e-05
-1.630918e-05
-6.868087e-06
-1.487483e-06
6.213108e-07
9.658357e-07
6.760169e-07
3.253059e-07
9.901088e-08
-2.284601e-08
9.999972e-01
9.998832e-01
9.997756e-01
1.000823e+00
1.004921e+00
1.012141e+00
1.017536e+00
1.010434e+00
9.775281e-01
9.082452e-01
7.996207e-01
6.584676e-01
5.000000e-01
3.435168e-01
2.068687e-01
1.018506e-01
3.211952e-02
-5.993602e-03
-2.066070e-02
-2.120562e-02
-1.551457e-02
-8.802632e-03
-3.621766e-03
-5.948437e-04
6.772441e-04
8.978671e-04
6.704827e-04
3.638594e-04
1.359700e-04
1.433136e-05
-2.920633e-05
-3.197325e-05
-2.092295e-05
-9.729586e-06
-2.715786e-06
3.739315e-07
1.117895e-06
8.915455e-07
4.760701e-07
9.376799e-08
1.000001e+00
9.999527e-01
9.997686e-01
9.998242e-01
1.001494e+00
1.006385e+00
1.013848e+00
1.018437e+00
1.009675e+00
9.750165e-01
9.047176e-01
7.962874e-01
6.564832e-01
5.000000e-01
3.453916e-01
2.098612e-01
1.049201e-01
3.438252e-02
-4.962476e-03
-2.078171e-02
-2.206376e-02
-1.661161e-02
-9.757166e-03
-4.251921e-03
-8.947249e-04
6.144064e-04
9.567988e-04
7.617662e-04
4.388745e-04
1.800220e-04
3.193055e-05
-2.731391e-05
-3.633498e-05
-2.590947e-05
-1.313123e-05
-4.347596e-06
-7.726670e-08
1.213234e-06
1.122578e-06
5.104840e-07
1.000001e+00
9.999888e-01
9.998755e-01
9.996645e-01
9.999727e-01
1.002271e+00
1.007828e+00
1.015392e+00
1.019152e+00
1.008839e+00
9.725759e-01
9.013577e-01
7.931313e-01
6.546084e-01
5.000000e-01
3.471643e-01
2.127030e-01
1.078619e-01
3.659259e-02
-3.902119e-03
-2.082358e-02
-2.283933e-02
-1.765678e-02
-1.070010e-02
-4.899963e-03
-1.223333e-03
5.272233e-04
1.002572e-03
8.504319e-04
5.174854e-04
2.294064e-04
5.380971e-05
-2.309740e-05
-4.001792e-05
-3.113057e-05
-1.704478e-05
-6.412589e-06
-7.740326e-07
1.221783e-06
1.277510e-06
1.000000e+00
1.000001e+00
9.999560e-01
9.997762e-01
9.995910e-01
1.000214e+00
1.003121e+00
1.009234e+00
1.016791e+00
1.019712e+00
1.007940e+00
9.701989e-01
8.981494e-01
7.901388e-01
6.528357e-01
5.000000e-01
3.488427e-01
2.154060e-01
1.106857e-01
3.875169e-02
-2.818246e-03
-2.079506e-02
-2.353865e-02
-1.865134e-02
-1.162864e-02
-5.561827e-03
-1.577763e-03
4.165485e-04
1.034468e-03
9.352071e-04
5.986760e-04
2.836750e-04
7.999493e-05
-1.630955e-05
-4.277068e-05
-3.643411e-05
-2.142314e-05
-8.927974e-06
-1.754036e-06
1.653083e-06
1.000000e+00
1.000002e+00
9.999931e-01
9.999017e-01
9.996675e-01
9.995591e-01
1.000538e+00
1.004023e+00
1.010594e+00
1.018061e+00
1.020139e+00
1.006989e+00
9.678805e-01
8.950799e-01
7.872970e-01
6.511573e-01
5.000000e-01
3.504342e-01
2.179812e-01
1.133999e-01
4.086152e-02
-1.715779e-03
-2.070374e-02
-2.416740e-02
-1.959674e-02
-1.254059e-02
-6.233983e-03
-1.955288e-03
2.833782e-04
1.052024e-03
1.015002e-03
6.814792e-04
3.423320e-04
1.104381e-04
-6.755222e-06
-4.435843e-05
-4.165974e-05
-2.620307e-05
-1.189841e-05
-8.314729e-07
1.000000e+00
1.000002e+00
1.000004e+00
9.999740e-01
9.998285e-01
9.995604e-01
9.995738e-01
1.000932e+00
1.004957e+00
1.011904e+00
1.019213e+00
1.020450e+00
1.005994e+00
9.656175e-01
8.921381e-01
7.845940e-01
6.495658e-01
5.000000e-01
3.519455e-01
2.204383e-01
1.160120e-01
4.292364e-02
-5.989548e-04
-2.055628e-02
-2.473075e-02
-2.049454e-02
-1.343426e-02
-6.913370e-03
-2.353363e-03
1.288003e-04
1.054982e-03
1.088895e-03
7.649884e-04
4.048535e-04
1.450293e-04
5.710717e-06
-4.456702e-05
-4.664384e-05
-3.130799e-05
-1.045183e-05
1.000000e+00
1.000001e+00
1.000004e+00
1.000002e+00
9.999415e-01
9.997411e-01
9.994634e-01
9.996363e-01
1.001386e+00
1.005910e+00
1.013161e+00
1.020258e+00
1.020661e+00
1.004962e+00
9.634074e-01
8.893143e-01
7.820188e-01
6.480545e-01
5.000000e-01
3.533832e-01
2.227866e-01
1.185289e-01
4.493951e-02
5.285788e-04
-2.035857e-02
-2.523340e-02
-2.134635e-02
-1.430836e-02
-7.597324e-03
-2.769626e-03
-4.604314e-05
1.043259e-03
1.156116e-03
8.483638e-04
4.707019e-04
1.836076e-04
2.118672e-05
-4.320547e-05
-5.122368e-05
-3.028829e-05
1.000000e+00
1.000000e+00
1.000002e+00
1.000007e+00
9.999938e-01
9.998954e-01
9.996446e-01
9.993827e-01
9.997453e-01
1.001889e+00
1.006874e+00
1.014365e+00
1.021206e+00
1.020782e+00
1.003902e+00
9.612483e-01
8.866001e-01
7.795617e-01
6.466168e-01
5.000000e-01
3.547529e-01
2.250339e-01
1.209567e-01
4.691056e-02
1.663685e-03
-2.011581e-02
-2.567967e-02
-2.215383e-02
-1.516193e-02
-8.283533e-03
-3.201894e-03
-2.399846e-04
1.016905e-03
1.216034e-03
9.308350e-04
5.393376e-04
2.259716e-04
3.972851e-05
-4.010735e-05
-5.415037e-05
1.000000e+00
1.000000e+00
1.000001e+00
1.000005e+00
1.000009e+00
9.999784e-01
9.998367e-01
9.995438e-01
9.993224e-01
9.998988e-01
1.002435e+00
1.007840e+00
1.015515e+00
1.022064e+00
1.020824e+00
1.002818e+00
9.591385e-01
8.839880e-01
7.772134e-01
6.452471e-01
5.000000e-01
3.560600e-01
2.271878e-01
1.233009e-01
4.883816e-02
2.803668e-03
-1.983263e-02
-2.607352e-02
-2.291864e-02
-1.599425e-02
-8.969987e-03
-3.648149e-03
-4.518517e-04
9.760854e-04
1.268138e-03
1.011702e-03
6.102281e-04
2.718884e-04
6.135335e-05
-5.482827e-05
1.000000e+00
1.000000e+00
1.000000e+00
1.000002e+00
1.000008e+00
1.000008e+00
9.999544e-01
9.997670e-01
9.994430e-01
9.992851e-01
1.000094e+00
1.003014e+00
1.008803e+00
1.016612e+00
1.022839e+00
1.020795e+00
1.001716e+00
9.570764e-01
8.814711e-01
7.749661e-01
6.439400e-01
5.000000e-01
3.573091e-01
2.292549e-01
1.255666e-01
5.072366e-02
3.946212e-03
-1.951317e-02
-2.641858e-02
-2.364244e-02
-1.680487e-02
-9.654943e-03
-4.106537e-03
-6.804834e-04
9.210530e-04
1.312027e-03
1.090333e-03
6.828548e-04
3.211012e-04
2.305736e-05
1.000000e+00
1.000000e+00
9.999999e-01
1.000001e+00
1.000004e+00
1.000012e+00
1.000004e+00
9.999214e-01
9.996885e-01
9.993457e-01
9.992724e-01
1.000327e+00
1.003622e+00
1.009757e+00
1.017657e+00
1.023539e+00
1.020704e+00
1.000599e+00
9.550605e-01
8.790433e-01
7.728122e-01
6.426909e-01
5.000000e-01
3.585046e-01
2.312411e-01
1.277585e-01
5.256839e-02
5.089330e-03
-1.916112e-02
-2.671821e-02
-2.432687e-02
-1.759348e-02
-1.033689e-02
-4.575352e-03
-9.247412e-04
8.521319e-04
1.347395e-03
1.166163e-03
7.567181e-04
2.502100e-04
1.000000e+00
1.000000e+00
9.999999e-01
1.000000e+00
1.000002e+00
1.000008e+00
1.000015e+00
9.999952e-01
9.998795e-01
9.996034e-01
9.992550e-01
9.992849e-01
1.000595e+00
1.004252e+00
1.010700e+00
1.018651e+00
1.024167e+00
1.020556e+00
9.994714e-01
9.530894e-01
8.766991e-01
7.707451e-01
6.414954e-01
5.000000e-01
3.596504e-01
2.331520e-01
1.298808e-01
5.437365e-02
6.231320e-03
-1.877979e-02
-2.697551e-02
-2.497354e-02
-1.835995e-02
-1.101453e-02
-5.053032e-03
-1.183517e-03
7.697011e-04
1.374020e-03
1.238691e-03
6.639675e-04
1.000000e+00
1.000000e+00
1.000000e+00
9.999999e-01
1.000000e+00
1.000003e+00
1.000012e+00
1.000017e+00
9.999810e-01
9.998292e-01
9.995139e-01
9.991732e-01
9.993228e-01
1.000895e+00
1.004900e+00
1.011629e+00
1.019597e+00
1.024731e+00
1.020359e+00
9.983363e-01
9.511618e-01
8.744334e-01
7.687589e-01
6.403496e-01
5.000000e-01
3.607500e-01
2.349925e-01
1.319376e-01
5.614070e-02
7.370723e-03
-1.837216e-02
-2.719333e-02
-2.558401e-02
-1.910424e-02
-1.168673e-02
-5.538144e-03
-1.455741e-03
6.741819e-04
1.391752e-03
1.181347e-03
1.000000e+00
1.000000e+00
1.000000e+00
9.999999e-01
9.999998e-01
1.000001e+00
1.000006e+00
1.000016e+00
1.000017e+00
9.999609e-01
9.997712e-01
9.994220e-01
9.991021e-01
9.993856e-01
1.001223e+00
1.005562e+00
1.012541e+00
1.020495e+00
1.025233e+00
1.020116e+00
9.971963e-01
9.492763e-01
8.722415e-01
7.668480e-01
6.392500e-01
5.000000e-01
3.618065e-01
2.367671e-01
1.339323e-01
5.787077e-02
8.506295e-03
-1.794089e-02
-2.737432e-02
-2.615980e-02
-1.982646e-02
-1.235252e-02
-6.029380e-03
-1.740383e-03
5.660269e-04
1.499976e-03
1.000000e+00
1.000000e+00
1.000000e+00
1.000000e+00
9.999998e-01
9.999999e-01
1.000002e+00
1.000009e+00
1.000020e+00
1.000014e+00
9.999347e-01
9.997065e-01
9.993295e-01
9.990432e-01
9.994728e-01
1.001578e+00
1.006234e+00
1.013434e+00
1.021346e+00
1.025680e+00
1.019833e+00
9.960538e-01
9.474316e-01
8.701192e-01
7.650075e-01
6.381935e-01
5.000000e-01
3.628229e-01
2.384800e-01
1.358683e-01
5.956507e-02
9.636973e-03
-1.748840e-02
-2.752092e-02
-2.670240e-02
-2.052677e-02
-1.301107e-02
-6.525542e-03
-2.036457e-03
1.046945e-03
1.000000e+00
1.000000e+00
1.000000e+00
1.000000e+00
9.999999e-01
9.999997e-01
1.000000e+00
1.000003e+00
1.000013e+00
1.000024e+00
1.000009e+00
9.999024e-01
9.996361e-01
9.992382e-01
9.989974e-01
9.995835e-01
1.001955e+00
1.006913e+00
1.014308e+00
1.022154e+00
1.026074e+00
1.019513e+00
9.949107e-01
9.456263e-01
8.680624e-01
7.632329e-01
6.371771e-01
5.000000e-01
3.638018e-01
2.401349e-01
1.377486e-01
6.122476e-02
1.076186e-02
-1.701686e-02
-2.763540e-02
-2.721321e-02
-2.120539e-02
-1.366169e-02
-7.025538e-03
-9.454259e-04
1.000000e+00
1.000000e+00
1.000000e+00
1.000000e+00
1.000000e+00
9.999998e-01
9.999997e-01
1.000001e+00
1.000006e+00
1.000017e+00
1.000027e+00
9.999991e-01
9.998640e-01
9.995611e-01
9.991496e-01
9.989655e-01
9.997166e-01
1.002353e+00
1.007597e+00
1.015162e+00
1.022919e+00
1.026419e+00
1.019161e+00
9.937687e-01
9.438593e-01
8.660677e-01
7.615200e-01
6.361982e-01
5.000000e-01
3.647455e-01
2.417353e-01
1.395763e-01
6.285096e-02
1.188018e-02
-1.652824e-02
-2.771986e-02
-2.769362e-02
-2.186264e-02
-1.430377e-02
-5.175468e-03
1.000000e+00
1.000000e+00
1.000000e+00
1.000000e+00
1.000000e+00
9.999999e-01
9.999997e-01
9.999996e-01
1.000001e+00
1.000009e+00
1.000022e+00
1.000029e+00
9.999857e-01
9.998200e-01
9.994825e-01
9.990648e-01
9.989480e-01
9.998712e-01
1.002770e+00
1.008284e+00
1.015994e+00
1.023642e+00
1.026718e+00
1.018780e+00
9.926293e-01
9.421292e-01
8.641317e-01
7.598651e-01
6.352545e-01
5.000000e-01
3.656563e-01
2.432843e-01
1.413538e-01
6.444476e-02
1.299129e-02
-1.602430e-02
-2.777626e-02
-2.814493e-02
-2.249883e-02
-1.182161e-02
1.000000e+00
1.000000e+00
1.000000e+00
1.000000e+00
1.000000e+00
1.000000e+00
9.999998e-01
9.999996e-01
9.999998e-01
1.000003e+00
1.000012e+00
1.000027e+00
1.000029e+00
9.999681e-01
9.997706e-01
9.994013e-01
9.989850e-01
9.989450e-01
1.000046e+00
1.003202e+00
1.008970e+00
1.016805e+00
1.024327e+00
1.026976e+00
1.018372e+00
9.914937e-01
9.404349e-01
8.622514e-01
7.582647e-01
6.343437e-01
5.000000e-01
3.665362e-01
2.447849e-01
1.430837e-01
6.600723e-02
1.409466e-02
-1.550666e-02
-2.780639e-02
-2.856841e-02
-2.000196e-02
1.000000e+00
1.000000e+00
1.000000e+00
1.000000e+00
1.000000e+00
1.000000e+00
9.999999e-01
9.999997e-01
9.999994e-01
1.000000e+00
1.000005e+00
1.000016e+00
1.000032e+00
1.000027e+00
9.999462e-01
9.997163e-01
9.993185e-01
9.989111e-01
9.989567e-01
1.000240e+00
1.003648e+00
1.009655e+00
1.017593e+00
1.024974e+00
1.027193e+00
1.017941e+00
9.903630e-01
9.387752e-01
8.604237e-01
7.567157e-01
6.334638e-01
5.000000e-01
3.673870e-01
2.462397e-01
1.447682e-01
6.753937e-02
1.518982e-02
-1.497678e-02
-2.781195e-02
-2.732906e-02
1.000000e+00
1.000000e+00
1.000000e+00
1.000000e+00
1.000000e+00
1.000000e+00
1.000000e+00
9.999999e-01
9.999996e-01
9.999993e-01
1.000001e+00
1.000007e+00
1.000021e+00
1.000036e+00
1.000023e+00
9.999200e-01
9.996577e-01
9.992350e-01
9.988439e-01
9.989831e-01
1.000452e+00
1.004107e+00
1.010337e+00
1.018360e+00
1.025584e+00
1.027374e+00
1.017488e+00
9.892381e-01
9.371490e-01
8.586462e-01
7.552151e-01
6.326130e-01
5.000000e-01
3.682103e-01
2.476512e-01
1.464095e-01
6.904217e-02
1.627641e-02
-1.443598e-02
-2.977972e-02
1.000000e+00
1.000000e+00
1.000000e+00
1.000000e+00
1.000000e+00
1.000000e+00
1.000000e+00
1.000000e+00
9.999998e-01
9.999994e-01
9.999993e-01
1.000001e+00
1.000010e+00
1.000026e+00
1.000040e+00
1.000016e+00
9.998896e-01
9.995951e-01
9.991516e-01
9.987840e-01
9.990239e-01
1.000680e+00
1.004575e+00
1.011015e+00
1.019104e+00
1.026160e+00
1.027521e+00
1.017017e+00
9.881198e-01
9.355552e-01
8.569163e-01
7.537603e-01
6.317897e-01
5.000000e-01
3.690078e-01
2.490217e-01
1.480096e-01
7.051655e-02
1.735411e-02
-2.204880e-02
1.000000e+00
1.000000e+00
1.000000e+00
1.000000e+00
1.000000e+00
1.000000e+00
1.000000e+00
1.000000e+00
9.999999e-01
9.999997e-01
9.999992e-01
9.999994e-01
1.000003e+00
1.000013e+00
1.000031e+00
1.000043e+00
1.000007e+00
9.998550e-01
9.995293e-01
9.990692e-01
9.987319e-01
9.990789e-01
1.000925e+00
1.005053e+00
1.011687e+00
1.019826e+00
1.026702e+00
1.027635e+00
1.016528e+00
9.870087e-01
9.339928e-01
8.552318e-01
7.523488e-01
6.309922e-01
5.000000e-01
3.697808e-01
2.503533e-01
1.495704e-01
7.196343e-02
1.580913e-03
1.000000e+00
1.000000e+00
1.000000e+00
1.000000e+00
1.000000e+00
1.000000e+00
1.000000e+00
1.000000e+00
1.000000e+00
9.999999e-01
9.999995e-01
9.999990e-01
9.999996e-01
1.000004e+00
1.000017e+00
1.000036e+00
1.000044e+00
9.999943e-01
9.998164e-01
9.994607e-01
9.989883e-01
9.986880e-01
9.991479e-01
1.001184e+00
1.005538e+00
1.012353e+00
1.020527e+00
1.027213e+00
1.027720e+00
1.016024e+00
9.859053e-01
9.324606e-01
8.535905e-01
7.509783e-01
6.302192e-01
5.000000e-01
3.705307e-01
2.516480e-01
1.510935e-01
4.600101e-02
1.000000e+00
1.000000e+00
1.000000e+00
1.000000e+00
1.000000e+00
1.000000e+00
1.000000e+00
1.000000e+00
1.000000e+00
1.000000e+00
9.999998e-01
9.999993e-01
9.999989e-01
1.000000e+00
1.000006e+00
1.000021e+00
1.000042e+00
1.000045e+00
9.999788e-01
9.997740e-01
9.993898e-01
9.989097e-01
9.986526e-01
9.992303e-01
1.001456e+00
1.006029e+00
1.013011e+00
1.021205e+00
1.027694e+00
1.027776e+00
1.015507e+00
9.848102e-01
9.309578e-01
8.519904e-01
7.496467e-01
6.294693e-01
5.000000e-01
3.712587e-01
2.529076e-01
1.139774e-01
1.000000e+00
1.000000e+00
1.000000e+00
1.000000e+00
1.000000e+00
1.000000e+00
1.000000e+00
1.000000e+00
1.000000e+00
1.000000e+00
1.000000e+00
9.999997e-01
9.999991e-01
9.999988e-01
1.000001e+00
1.000009e+00
1.000026e+00
1.000047e+00
1.000043e+00
9.999603e-01
9.997281e-01
9.993171e-01
9.988338e-01
9.986260e-01
9.993258e-01