# vtk DataFile Version 3.0
9.SOU_1Pe = 1e+08,Grid 81x81,000191.vtk
ASCII
DATASET STRUCTURED_GRID
DIMENSIONS 81 81 1
POINTS 6561 double
0.000000e+00 0.000000e+00 0.0
1.250000e-02 0.000000e+00 0.0
2.500000e-02 0.000000e+00 0.0
3.750000e-02 0.000000e+00 0.0
5.000000e-02 0.000000e+00 0.0
6.250000e-02 0.000000e+00 0.0
7.500000e-02 0.000000e+00 0.0
8.750000e-02 0.000000e+00 0.0
1.000000e-01 0.000000e+00 0.0
1.125000e-01 0.000000e+00 0.0
1.250000e-01 0.000000e+00 0.0
1.375000e-01 0.000000e+00 0.0
1.500000e-01 0.000000e+00 0.0
1.625000e-01 0.000000e+00 0.0
1.750000e-01 0.000000e+00 0.0
1.875000e-01 0.000000e+00 0.0
2.000000e-01 0.000000e+00 0.0
2.125000e-01 0.000000e+00 0.0
2.250000e-01 0.000000e+00 0.0
2.375000e-01 0.000000e+00 0.0
2.500000e-01 0.000000e+00 0.0
2.625000e-01 0.000000e+00 0.0
2.750000e-01 0.000000e+00 0.0
2.875000e-01 0.000000e+00 0.0
3.000000e-01 0.000000e+00 0.0
3.125000e-01 0.000000e+00 0.0
3.250000e-01 0.000000e+00 0.0
3.375000e-01 0.000000e+00 0.0
3.500000e-01 0.000000e+00 0.0
3.625000e-01 0.000000e+00 0.0
3.750000e-01 0.000000e+00 0.0
3.875000e-01 0.000000e+00 0.0
4.000000e-01 0.000000e+00 0.0
4.125000e-01 0.000000e+00 0.0
4.250000e-01 0.000000e+00 0.0
4.375000e-01 0.000000e+00 0.0
4.500000e-01 0.000000e+00 0.0
4.625000e-01 0.000000e+00 0.0
4.750000e-01 0.000000e+00 0.0
4.875000e-01 0.000000e+00 0.0
5.000000e-01 0.000000e+00 0.0
5.125000e-01 0.000000e+00 0.0
5.250000e-01 0.000000e+00 0.0
5.375000e-01 0.000000e+00 0.0
5.500000e-01 0.000000e+00 0.0
5.625000e-01 0.000000e+00 0.0
5.750000e-01 0.000000e+00 0.0
5.875000e-01 0.000000e+00 0.0
6.000000e-01 0.000000e+00 0.0
6.125000e-01 0.000000e+00 0.0
6.250000e-01 0.000000e+00 0.0
6.375000e-01 0.000000e+00 0.0
6.500000e-01 0.000000e+00 0.0
6.625000e-01 0.000000e+00 0.0
6.750000e-01 0.000000e+00 0.0
6.875000e-01 0.000000e+00 0.0
7.000000e-01 0.000000e+00 0.0
7.125000e-01 0.000000e+00 0.0
7.250000e-01 0.000000e+00 0.0
7.375000e-01 0.000000e+00 0.0
7.500000e-01 0.000000e+00 0.0
7.625000e-01 0.000000e+00 0.0
7.750000e-01 0.000000e+00 0.0
7.875000e-01 0.000000e+00 0.0
8.000000e-01 0.000000e+00 0.0
8.125000e-01 0.000000e+00 0.0
8.250000e-01 0.000000e+00 0.0
8.375000e-01 0.000000e+00 0.0
8.500000e-01 0.000000e+00 0.0
8.625000e-01 0.000000e+00 0.0
8.750000e-01 0.000000e+00 0.0
8.875000e-01 0.000000e+00 0.0
9.000000e-01 0.000000e+00 0.0
9.125000e-01 0.000000e+00 0.0
9.250000e-01 0.000000e+00 0.0
9.375000e-01 0.000000e+00 0.0
9.500000e-01 0.000000e+00 0.0
9.625000e-01 0.000000e+00 0.0
9.750000e-01 0.000000e+00 0.0
9.875000e-01 0.000000e+00 0.0
1.000000e+00 0.000000e+00 0.0
0.000000e+00 1.250000e-02 0.0
1.250000e-02 1.250000e-02 0.0
2.500000e-02 1.250000e-02 0.0
3.750000e-02 1.250000e-02 0.0
5.000000e-02 1.250000e-02 0.0
6.250000e-02 1.250000e-02 0.0
7.500000e-02 1.250000e-02 0.0
8.750000e-02 1.250000e-02 0.0
1.000000e-01 1.250000e-02 0.0
1.125000e-01 1.250000e-02 0.0
1.250000e-01 1.250000e-02 0.0
1.375000e-01 1.250000e-02 0.0
1.500000e-01 1.250000e-02 0.0
1.625000e-01 1.250000e-02 0.0
1.750000e-01 1.250000e-02 0.0
1.875000e-01 1.250000e-02 0.0
2.000000e-01 1.250000e-02 0.0
2.125000e-01 1.250000e-02 0.0
2.250000e-01 1.250000e-02 0.0
2.375000e-01 1.250000e-02 0.0
2.500000e-01 1.250000e-02 0.0
2.625000e-01 1.250000e-02 0.0
2.750000e-01 1.250000e-02 0.0
2.875000e-01 1.250000e-02 0.0
3.000000e-01 1.250000e-02 0.0
3.125000e-01 1.250000e-02 0.0
3.250000e-01 1.250000e-02 0.0
3.375000e-01 1.250000e-02 0.0
3.500000e-01 1.250000e-02 0.0
3.625000e-01 1.250000e-02 0.0
3.750000e-01 1.250000e-02 0.0
3.875000e-01 1.250000e-02 0.0
4.000000e-01 1.250000e-02 0.0
4.125000e-01 1.250000e-02 0.0
4.250000e-01 1.250000e-02 0.0
4.375000e-01 1.250000e-02 0.0
4.500000e-01 1.250000e-02 0.0
4.625000e-01 1.250000e-02 0.0
4.750000e-01 1.250000e-02 0.0
4.875000e-01 1.250000e-02 0.0
5.000000e-01 1.250000e-02 0.0
5.125000e-01 1.250000e-02 0.0
5.250000e-01 1.250000e-02 0.0
5.375000e-01 1.250000e-02 0.0
5.500000e-01 1.250000e-02 0.0
5.625000e-01 1.250000e-02 0.0
5.750000e-01 1.250000e-02 0.0
5.875000e-01 1.250000e-02 0.0
6.000000e-01 1.250000e-02 0.0
6.125000e-01 1.250000e-02 0.0
6.250000e-01 1.250000e-02 0.0
6.375000e-01 1.250000e-02 0.0
6.500000e-01 1.250000e-02 0.0
6.625000e-01 1.250000e-02 0.0
6.750000e-01 1.250000e-02 0.0
6.875000e-01 1.250000e-02 0.0
7.000000e-01 1.250000e-02 0.0
7.125000e-01 1.250000e-02 0.0
7.250000e-01 1.250000e-02 0.0
7.375000e-01 1.250000e-02 0.0
7.500000e-01 1.250000e-02 0.0
7.625000e-01 1.250000e-02 0.0
7.750000e-01 1.250000e-02 0.0
7.875000e-01 1.250000e-02 0.0
8.000000e-01 1.250000e-02 0.0
8.125000e-01 1.250000e-02 0.0
8.250000e-01 1.250000e-02 0.0
8.375000e-01 1.250000e-02 0.0
8.500000e-01 1.250000e-02 0.0
8.625000e-01 1.250000e-02 0.0
8.750000e-01 1.250000e-02 0.0
8.875000e-01 1.250000e-02 0.0
9.000000e-01 1.250000e-02 0.0
9.125000e-01 1.250000e-02 0.0
9.250000e-01 1.250000e-02 0.0
9.375000e-01 1.250000e-02 0.0
9.500000e-01 1.250000e-02 0.0
9.625000e-01 1.250000e-02 0.0
9.750000e-01 1.250000e-02 0.0
9.875000e-01 1.250000e-02 0.0
1.000000e+00 1.250000e-02 0.0
0.000000e+00 2.500000e-02 0.0
1.250000e-02 2.500000e-02 0.0
2.500000e-02 2.500000e-02 0.0
3.750000e-02 2.500000e-02 0.0
5.000000e-02 2.500000e-02 0.0
6.250000e-02 2.500000e-02 0.0
7.500000e-02 2.500000e-02 0.0
8.750000e-02 2.500000e-02 0.0
1.000000e-01 2.500000e-02 0.0
1.125000e-01 2.500000e-02 0.0
1.250000e-01 2.500000e-02 0.0
1.375000e-01 2.500000e-02 0.0
1.500000e-01 2.500000e-02 0.0
1.625000e-01 2.500000e-02 0.0
1.750000e-01 2.500000e-02 0.0
1.875000e-01 2.500000e-02 0.0
2.000000e-01 2.500000e-02 0.0
2.125000e-01 2.500000e-02 0.0
2.250000e-01 2.500000e-02 0.0
2.375000e-01 2.500000e-02 0.0
2.500000e-01 2.500000e-02 0.0
2.625000e-01 2.500000e-02 0.0
2.750000e-01 2.500000e-02 0.0
2.875000e-01 2.500000e-02 0.0
3.000000e-01 2.500000e-02 0.0
3.125000e-01 2.500000e-02 0.0
3.250000e-01 2.500000e-02 0.0
3.375000e-01 2.500000e-02 0.0
3.500000e-01 2.500000e-02 0.0
3.625000e-01 2.500000e-02 0.0
3.750000e-01 2.500000e-02 0.0
3.875000e-01 2.500000e-02 0.0
4.000000e-01 2.500000e-02 0.0
4.125000e-01 2.500000e-02 0.0
4.250000e-01 2.500000e-02 0.0
4.375000e-01 2.500000e-02 0.0
4.500000e-01 2.500000e-02 0.0
4.625000e-01 2.500000e-02 0.0
4.750000e-01 2.500000e-02 0.0
4.875000e-01 2.500000e-02 0.0
5.000000e-01 2.500000e-02 0.0
5.125000e-01 2.500000e-02 0.0
5.250000e-01 2.500000e-02 0.0
5.375000e-01 2.500000e-02 0.0
5.500000e-01 2.500000e-02 0.0
5.625000e-01 2.500000e-02 0.0
5.750000e-01 2.500000e-02 0.0
5.875000e-01 2.500000e-02 0.0
6.000000e-01 2.500000e-02 0.0
6.125000e-01 2.500000e-02 0.0
6.250000e-01 2.500000e-02 0.0
6.375000e-01 2.500000e-02 0.0
6.500000e-01 2.500000e-02 0.0
6.625000e-01 2.500000e-02 0.0
6.750000e-01 2.500000e-02 0.0
6.875000e-01 2.500000e-02 0.0
7.000000e-01 2.500000e-02 0.0
7.125000e-01 2.500000e-02 0.0
7.250000e-01 2.500000e-02 0.0
7.375000e-01 2.500000e-02 0.0
7.500000e-01 2.500000e-02 0.0
7.625000e-01 2.500000e-02 0.0
7.750000e-01 2.500000e-02 0.0
7.875000e-01 2.500000e-02 0.0
8.000000e-01 2.500000e-02 0.0
8.125000e-01 2.500000e-02 0.0
8.250000e-01 2.500000e-02 0.0
8.375000e-01 2.500000e-02 0.0
8.500000e-01 2.500000e-02 0.0
8.625000e-01 2.500000e-02 0.0
8.750000e-01 2.500000e-02 0.0
8.875000e-01 2.500000e-02 0.0
9.000000e-01 2.500000e-02 0.0
9.125000e-01 2.500000e-02 0.0
9.250000e-01 2.500000e-02 0.0
9.375000e-01 2.500000e-02 0.0
9.500000e-01 2.500000e-02 0.0
9.625000e-01 2.500000e-02 0.0
9.750000e-01 2.500000e-02 0.0
9.875000e-01 2.500000e-02 0.0
1.000000e+00 2.500000e-02 0.0
0.000000e+00 3.750000e-02 0.0
1.250000e-02 3.750000e-02 0.0
2.500000e-02 3.750000e-02 0.0
3.750000e-02 3.750000e-02 0.0
5.000000e-02 3.750000e-02 0.0
6.250000e-02 3.750000e-02 0.0
7.500000e-02 3.750000e-02 0.0
8.750000e-02 3.750000e-02 0.0
1.000000e-01 3.750000e-02 0.0
1.125000e-01 3.750000e-02 0.0
1.250000e-01 3.750000e-02 0.0
1.375000e-01 3.750000e-02 0.0
1.500000e-01 3.750000e-02 0.0
1.625000e-01 3.750000e-02 0.0
1.750000e-01 3.750000e-02 0.0
1.875000e-01 3.750000e-02 0.0
2.000000e-01 3.750000e-02 0.0
2.125000e-01 3.750000e-02 0.0
2.250000e-01 3.750000e-02 0.0
2.375000e-01 3.750000e-02 0.0
2.500000e-01 3.750000e-02 0.0
2.625000e-01 3.750000e-02 0.0
2.750000e-01 3.750000e-02 0.0
2.875000e-01 3.750000e-02 0.0
3.000000e-01 3.750000e-02 0.0
3.125000e-01 3.750000e-02 0.0
3.250000e-01 3.750000e-02 0.0
3.375000e-01 3.750000e-02 0.0
3.500000e-01 3.750000e-02 0.0
3.625000e-01 3.750000e-02 0.0
3.750000e-01 3.750000e-02 0.0
3.875000e-01 3.750000e-02 0.0
4.000000e-01 3.750000e-02 0.0
4.125000e-01 3.750000e-02 0.0
4.250000e-01 3.750000e-02 0.0
4.375000e-01 3.750000e-02 0.0
4.500000e-01 3.750000e-02 0.0
4.625000e-01 3.750000e-02 0.0
4.750000e-01 3.750000e-02 0.0
4.875000e-01 3.750000e-02 0.0
5.000000e-01 3.750000e-02 0.0
5.125000e-01 3.750000e-02 0.0
5.250000e-01 3.750000e-02 0.0
5.375000e-01 3.750000e-02 0.0
5.500000e-01 3.750000e-02 0.0
5.625000e-01 3.750000e-02 0.0
5.750000e-01 3.750000e-02 0.0
5.875000e-01 3.750000e-02 0.0
6.000000e-01 3.750000e-02 0.0
6.125000e-01 3.750000e-02 0.0
6.250000e-01 3.750000e-02 0.0
6.375000e-01 3.750000e-02 0.0
6.500000e-01 3.750000e-02 0.0
6.625000e-01 3.750000e-02 0.0
6.750000e-01 3.750000e-02 0.0
6.875000e-01 3.750000e-02 0.0
7.000000e-01 3.750000e-02 0.0
7.125000e-01 3.750000e-02 0.0
7.250000e-01 3.750000e-02 0.0
7.375000e-01 3.750000e-02 0.0
7.500000e-01 3.750000e-02 0.0
7.625000e-01 3.750000e-02 0.0
7.750000e-01 3.750000e-02 0.0
7.875000e-01 3.750000e-02 0.0
8.000000e-01 3.750000e-02 0.0
8.125000e-01 3.750000e-02 0.0
8.250000e-01 3.750000e-02 0.0
8.375000e-01 3.750000e-02 0.0
8.500000e-01 3.750000e-02 0.0
8.625000e-01 3.750000e-02 0.0
8.750000e-01 3.750000e-02 0.0
8.875000e-01 3.750000e-02 0.0
9.000000e-01 3.750000e-02 0.0
9.125000e-01 3.750000e-02 0.0
9.250000e-01 3.750000e-02 0.0
9.375000e-01 3.750000e-02 0.0
9.500000e-01 3.750000e-02 0.0
9.625000e-01 3.750000e-02 0.0
9.750000e-01 3.750000e-02 0.0
9.875000e-01 3.750000e-02 0.0
1.000000e+00 3.750000e-02 0.0
0.000000e+00 5.000000e-02 0.0
1.250000e-02 5.000000e-02 0.0
2.500000e-02 5.000000e-02 0.0
3.750000e-02 5.000000e-02 0.0
[...]
CELL_DATA 6400
SCALARS Temperature double 1
LOOKUP_TABLE default
5.000000e-01
3.571426e-01
1.326530e-01
2.478137e-02
-4.789613e-03
-6.277109e-03
-2.902690e-03
-7.619524e-04
-2.073261e-05
9.700271e-05
5.839187e-05
1.950930e-05
2.806514e-06
-1.183303e-06
-1.077099e-06
-4.464416e-07
-1.012391e-07
5.925961e-09
1.784877e-08
9.352684e-09
2.794569e-09
2.608093e-10
-2.501840e-10
-1.802184e-10
-6.724085e-11
-1.267792e-11
2.361185e-12
3.160310e-12
1.468554e-12
3.876952e-13
1.174747e-14
-4.867085e-14
-2.948936e-14
-9.897800e-15
-1.443060e-15
5.893591e-16
5.429140e-16
2.260342e-16
5.160011e-17
-2.805531e-18
-8.974565e-18
-4.727388e-18
-1.419195e-18
-1.355924e-19
1.252696e-19
9.095294e-20
3.407601e-20
6.477770e-21
-1.166820e-21
-1.592258e-21
-7.431782e-22
-1.971936e-22
-6.503288e-24
2.445894e-23
1.490690e-23
5.024215e-24
7.412825e-25
-2.942689e-25
-2.741038e-25
-1.146085e-25
-2.633488e-26
1.325496e-27
4.520793e-27
2.394556e-27
7.226850e-28
7.091301e-29
-6.273180e-29
-4.599066e-29
-1.732556e-29
-3.332552e-30
5.703561e-31
8.021130e-31
3.770166e-31
1.009283e-31
3.841390e-33
-1.221784e-32
-7.531387e-33
-2.559808e-33
-3.877128e-34
2.325291e-34
6.428574e-01
5.000000e-01
3.367346e-01
1.618075e-01
4.775797e-02
-3.601644e-04
-1.061867e-02
-7.654043e-03
-3.350197e-03
-8.769572e-04
2.238681e-05
1.773415e-04
1.168353e-04
4.734726e-05
1.119475e-05
-8.000542e-07
-2.483522e-06
-1.517401e-06
-5.828076e-07
-1.278452e-07
1.423296e-08
3.101343e-08
1.809498e-08
6.744253e-09
1.424318e-09
-1.850569e-10
-3.587888e-10
-2.057162e-10
-7.612254e-11
-1.613942e-11
1.937194e-12
3.940792e-12
2.279756e-12
8.547948e-13
1.887037e-13
-1.617121e-14
-4.177879e-14
-2.496899e-14
-9.639912e-15
-2.267480e-15
8.750692e-17
4.323090e-16
2.724390e-16
1.094622e-16
2.767310e-17
2.809907e-19
-4.396420e-18
-2.972382e-18
-1.249832e-18
-3.391562e-19
-1.842026e-20
4.408100e-20
3.245196e-20
1.430829e-20
4.142683e-21
3.812879e-22
-4.356305e-22
-3.542133e-22
-1.637667e-22
-5.023851e-23
-6.220174e-24
4.227313e-24
3.858666e-24
1.869900e-24
6.041006e-25
9.114698e-26
-3.996983e-26
-4.187594e-26
-2.127023e-26
-7.203720e-27
-1.257018e-27
3.632610e-28
4.519893e-28
2.408683e-28
8.525185e-29
1.668030e-29
-3.094518e-30
-4.845167e-30
-2.714698e-30
-6.595713e-31
8.673470e-01
6.632654e-01
5.000000e-01
3.265306e-01
1.669907e-01
5.771146e-02
4.047235e-03
-1.189611e-02
-1.083528e-02
-5.841644e-03
-2.083359e-03
-3.003237e-04
2.244324e-04
2.314375e-04
1.245290e-04
4.398752e-05
6.931411e-06
-3.722884e-06
-4.028668e-06
-2.152088e-06
-7.542594e-07
-1.235270e-07
5.546329e-08
6.208950e-08
3.310989e-08
1.160378e-08
1.977970e-09
-7.529822e-10
-8.826419e-10
-4.737556e-10
-1.674411e-10
-3.003307e-11
9.409450e-12
1.184997e-11
6.457791e-12
2.319327e-12
4.419808e-13
-1.085828e-13
-1.524869e-13
-8.507210e-14
-3.124053e-14
-6.359406e-15
1.148990e-15
1.898887e-15
1.092856e-15
4.122631e-16
8.976375e-17
-1.085035e-17
-2.302715e-17
-1.376890e-17
-5.353585e-18
-1.244834e-18
8.400601e-20
2.730101e-19
1.707652e-19
6.859544e-20
1.697907e-20
-3.492214e-22
-3.171776e-21
-2.089789e-21
-8.687095e-22
-2.280260e-22
-4.661666e-24
3.614254e-23
2.527460e-23
1.088678e-23
3.018816e-24
1.701838e-25
-4.038543e-25
-3.024022e-25
-1.351311e-25
-3.944544e-26
-3.474012e-27
4.418750e-27
3.581669e-27
1.662451e-27
5.092994e-28
5.923033e-29
-4.720545e-29
-4.069716e-29
9.752186e-01
8.381925e-01
6.734694e-01
5.000000e-01
3.244559e-01
1.715050e-01
6.472863e-02
7.913226e-03
-1.217776e-02
-1.318564e-02
-8.153439e-03
-3.467794e-03
-8.228087e-04
1.758260e-04
3.355054e-04
2.238243e-04
9.833354e-05
2.602269e-05
-1.629077e-06
-6.836575e-06
-4.791415e-06
-2.142370e-06
-5.957192e-07
1.836885e-10
1.212446e-07
8.856583e-08
4.021494e-08
1.158132e-08
4.426645e-10
-1.948252e-09
-1.484562e-09
-6.856791e-10
-2.038000e-10
-1.382963e-11
2.902056e-11
2.320089e-11
1.093213e-11
3.353057e-12
3.133038e-13
-4.063087e-13
-3.439312e-13
-1.658813e-13
-5.254525e-14
-6.135702e-15
5.391002e-15
4.891411e-15
2.423019e-15
7.933760e-16
1.099392e-16
-6.805881e-17
-6.726167e-17
-3.433527e-17
-1.162935e-17
-1.850759e-18
8.175315e-19
8.991465e-19
4.745685e-19
1.663482e-19
2.971717e-20
-9.297952e-21
-1.172958e-20
-6.422794e-21
-2.330693e-21
-4.595518e-22
9.882828e-23
1.497199e-22
8.536119e-23
3.207473e-23
6.890670e-24
-9.523819e-25
-1.873239e-24
-1.116455e-24
-4.344900e-25
-1.006796e-25
7.668486e-27
2.299770e-26
1.439378e-26
5.803226e-27
1.438850e-27
-3.297562e-28
1.004790e+00
9.522420e-01
8.330093e-01
6.755441e-01
5.000000e-01
3.254607e-01
1.761184e-01
7.042702e-02
1.128568e-02
-1.203085e-02
-1.498991e-02
-1.024994e-02
-4.920920e-03
-1.493648e-03
2.730225e-05
4.090273e-04
3.325349e-04
1.714877e-04
5.848813e-05
6.211811e-06
-8.675362e-06
-8.226532e-06
-4.444852e-06
-1.602374e-06
-2.521308e-07
1.560846e-07
1.725584e-07
9.687123e-08
3.626336e-08
6.810529e-09
-2.465329e-09
-3.230752e-09
-1.880382e-09
-7.263254e-10
-1.525499e-10
3.443472e-11
5.559582e-11
3.357824e-11
1.335383e-11
3.049501e-12
-4.167125e-13
-8.955847e-13
-5.628263e-13
-2.303608e-13
-5.635788e-14
4.013664e-15
1.366911e-14
8.974527e-15
3.781970e-15
9.824860e-16
-1.928459e-17
-1.992863e-16
-1.374103e-16
-5.967198e-17
-1.636311e-17
-3.754473e-19
2.790427e-18
2.033817e-18
9.111485e-19
2.626138e-19
1.554340e-20
-3.765041e-20
-2.924385e-20
-1.353325e-20
-4.086540e-21
-3.708279e-22
4.902733e-22
4.100082e-22
1.962881e-22
6.193978e-23
7.352346e-24
-6.159422e-24
-5.620750e-24
-2.788458e-24
-9.176695e-25
-1.319840e-25
7.446594e-26
7.550017e-26
3.888963e-26
7.978158e-27
1.006277e+00
1.000360e+00
9.422885e-01
8.284950e-01
6.745393e-01
5.000000e-01
3.275343e-01
1.806554e-01
7.540131e-02
1.433538e-02
-1.164431e-02
-1.640742e-02
-1.214104e-02
-6.384528e-03
-2.270563e-03
-2.142414e-04
4.408999e-04
4.396280e-04
2.588657e-04
1.045865e-04
2.159511e-05
-8.161606e-06
-1.190420e-05
-7.644143e-06
-3.300360e-06
-8.369229e-07
1.004468e-07
2.691020e-07
1.867620e-07
8.452279e-08
2.382546e-08
-2.430187e-10
-5.352535e-09
-4.009765e-09
-1.887626e-09
-5.710347e-10
-3.084434e-11
9.643599e-11
7.828170e-11
3.821589e-11
1.220985e-11
1.201192e-12
-1.600636e-12
-1.419840e-12
-7.182583e-13
-2.403389e-13
-3.180764e-14
2.470208e-14
2.427230e-14
1.273087e-14
4.440225e-15
7.112102e-16
-3.555641e-16
-3.950503e-16
-2.151514e-16
-7.799288e-17
-1.435561e-17
4.756523e-18
6.166089e-18
3.494601e-18
1.314373e-18
2.697871e-19
-5.831082e-20
-9.278384e-20
-5.487830e-20
-2.139378e-20
-4.803549e-21
6.312458e-22
1.351130e-21
8.369981e-22
3.380250e-22
8.193064e-23
-5.391628e-24
-1.909167e-23
-1.244224e-23
-5.204718e-24
-1.348868e-24
1.757069e-26
2.622110e-25
1.602612e-25
1.002903e+00
1.010619e+00
9.959528e-01
9.352714e-01
8.238816e-01
6.724657e-01
5.000000e-01
3.299548e-01
1.850232e-01
7.991840e-02
1.717721e-02
-1.109820e-02
-1.753554e-02
-1.384807e-02
-7.827715e-03
-3.121467e-03
-5.378493e-04
4.261815e-04
5.365914e-04
3.553864e-04
1.633351e-04
4.558907e-05
-4.025072e-06
-1.511058e-05
-1.156109e-05
-5.772929e-06
-1.883569e-06
-1.303033e-07
3.455228e-07
3.072791e-07
1.635602e-07
5.820347e-08
8.287372e-09
-6.727766e-09
-7.099394e-09
-3.998066e-09
-1.511976e-09
-2.829465e-10
1.133266e-10
1.476777e-10
8.777341e-11
3.485277e-11
7.633020e-12
-1.628268e-12
-2.827124e-12
-1.774267e-12
-7.351416e-13
-1.794116e-13
1.846678e-14
5.053654e-14
3.357660e-14
1.446902e-14
3.835785e-15
-1.077286e-16
-8.518220e-16
-6.018592e-16
-2.693050e-16
-7.639502e-17
-2.087099e-18
1.362704e-17
1.030620e-17
4.785765e-18
1.438816e-18
1.019848e-19
-2.077165e-19
-1.696758e-19
-8.178198e-20
-2.588961e-20
-2.761411e-21
3.021657e-21
2.698796e-21
1.351237e-21
4.483690e-22
6.144423e-23
-4.190701e-23
-4.162650e-23
-2.167818e-23
-7.515264e-24
-1.228832e-24
8.923634e-25
1.000762e+00
1.007654e+00
1.011896e+00
9.920868e-01
9.295730e-01
8.193446e-01
6.700452e-01
5.000000e-01
3.324410e-01
1.891838e-01
8.410789e-02
1.987710e-02
-1.043342e-02
-1.843641e-02
-1.539208e-02
-9.233925e-03
-4.022655e-03
-9.319342e-04
3.637353e-04
6.173053e-04
4.562051e-04
2.330056e-04
7.860361e-05
4.768505e-06
-1.707891e-05
-1.588982e-05
-9.019182e-06
-3.496208e-06
-6.283889e-07
3.545399e-07
4.461603e-07
2.771931e-07
1.168524e-07
2.788597e-08
-5.303048e-09
-1.075322e-08
-7.287816e-09
-3.271047e-09
-9.035599e-10
3.488261e-11
2.303287e-10
1.707737e-10
8.081650e-11
2.456658e-11
1.143288e-12
-4.475017e-12
-3.658685e-12
-1.817013e-12
-5.932967e-13
-6.112708e-14
7.977553e-14
7.289898e-14
3.791988e-14
1.312414e-14
1.897437e-15
-1.310634e-15
-1.367138e-15
-7.447100e-16
-2.710365e-16
-4.807074e-17
1.977722e-17
2.434213e-17
1.390082e-17
5.293655e-18
1.082975e-18
-2.698416e-19
-4.141106e-19
-2.484652e-19
-9.869134e-20
-2.250854e-20
3.185677e-21
6.762368e-21
4.277112e-21
1.768495e-21
4.402823e-22
-2.811028e-23
-1.063477e-22
-7.122653e-23
-3.062272e-23
-3.446531e-24
1.000021e+00
1.003350e+00
1.010835e+00
1.012178e+00
9.887143e-01
9.245987e-01
8.149768e-01
6.675590e-01
5.000000e-01
3.348763e-01
1.931266e-01
8.803949e-02
2.247223e-02
-9.674672e-03
-1.915191e-02
-1.679120e-02
-1.059428e-02
-4.956639e-03
-1.385657e-03
2.546399e-04
6.776165e-04
5.570431e-04
3.114993e-04
1.205232e-04
1.897324e-05
-1.706940e-05
-2.024066e-05
-1.295796e-05
-5.741713e-06
-1.483005e-06
2.384606e-07
5.812356e-07
4.242673e-07
2.056843e-07
6.405964e-08
1.923291e-09
-1.400094e-08
-1.178804e-08
-6.146470e-09
-2.134334e-09
-2.595558e-10
2.907247e-10
2.896811e-10
1.613158e-10
6.049713e-11
1.075787e-11
-5.227518e-12
-6.459427e-12
-3.833641e-12
-1.528366e-12
-3.323841e-13
7.932553e-14
1.329215e-13
8.416083e-14
3.536060e-14
8.773514e-15
-9.109526e-16
-2.553291e-15
-1.730712e-15
-7.625788e-16
-2.084674e-16
3.548381e-18
4.613747e-17
3.367902e-17
1.551972e-17
4.581710e-18
2.054159e-19
-7.880011e-19
-6.249039e-19
-3.007787e-19
-9.469478e-20
-8.717154e-21
1.274767e-20
1.112005e-20
5.589271e-21
1.861041e-21
2.418657e-22
-1.951606e-22
-1.906282e-22
-7.828071e-23
9.999030e-01
1.000877e+00
1.005842e+00
1.013186e+00
1.012031e+00
9.856646e-01
9.200816e-01
8.108162e-01
6.651237e-01
5.000000e-01
3.372125e-01
1.968552e-01
9.175511e-02
2.498386e-02
-8.839188e-03
-1.971190e-02
-1.806048e-02
-1.190410e-02
-5.910385e-03
-1.889366e-03
1.011959e-04
7.148855e-04
6.542897e-04
3.965997e-04
1.708469e-04
3.906677e-05
-1.442050e-05
-2.418072e-05
-1.744014e-05
-8.644402e-06
-2.771635e-06
-6.573379e-08
6.814852e-07
5.977542e-07
3.285123e-07
1.224570e-07
1.876673e-08
-1.521184e-08
-1.721606e-08
-1.037077e-08
-4.255933e-09
-9.434757e-10
2.599884e-10
4.340206e-10
2.861566e-10
1.263521e-10
3.366685e-11
-2.617533e-12
-9.813029e-12
-7.114486e-12
-3.342374e-12
-1.001770e-12
-2.849100e-14
2.018871e-13
1.625974e-13
8.081790e-14
2.639965e-14
2.552066e-15
-3.807189e-15
-3.463843e-15
-1.816973e-15
-6.357007e-16
-9.253077e-17
6.583309e-17
6.947647e-17
3.844493e-17
1.425653e-17
2.612957e-18
-1.034266e-18
-1.321770e-18
-7.724635e-19
-3.016197e-19
-6.455059e-20
1.435472e-20
2.398102e-20
1.484027e-20
6.075659e-21
1.458830e-21
-1.620354e-22
-4.509223e-22
9.999416e-01
9.999776e-01
1.002083e+00
1.008153e+00
1.014990e+00
1.011644e+00
9.828228e-01
9.158921e-01
8.068734e-01
6.627875e-01
5.000000e-01
3.394323e-01
2.003796e-01
9.528273e-02
2.742444e-02
-7.940213e-03
-2.013881e-02
-1.921246e-02
-1.316115e-02
-6.874044e-03
-2.434645e-03
-9.367392e-05
7.276007e-04
7.449918e-04
4.861302e-04
2.288110e-04
6.527883e-05
-8.576707e-06
-2.726739e-05
-2.226457e-05
-1.218599e-05
-4.553928e-06
-6.213449e-07
7.089788e-07
7.845412e-07
4.861819e-07
2.082092e-07
4.959936e-08
-1.208818e-08
-2.288345e-08
-1.603497e-08
-7.553512e-09
-2.238138e-09
2.928524e-11
5.732340e-10
4.597168e-10
2.342548e-10
7.888207e-11
7.642571e-12
-1.254020e-11
-1.180674e-11
-6.462199e-12
-2.381493e-12
-3.900661e-13
2.393754e-13
2.770108e-13
1.625296e-13
6.431161e-14
1.353652e-14
-3.876367e-15
-6.016896e-15
-3.789595e-15
-1.592960e-15
-3.920995e-16
4.782402e-17
1.220988e-16
8.289864e-17
3.678931e-17
1.012444e-17
-2.129644e-19
-2.328571e-18
-1.716514e-18
-8.014064e-19
-2.404695e-19
-1.168976e-20
4.186832e-20
3.387063e-20
1.660746e-20
5.350297e-21
-4.563885e-22
9.999805e-01
9.998227e-01
1.000300e+00
1.003468e+00
1.010250e+00
1.016407e+00
1.011098e+00
9.801229e-01
9.119605e-01
8.031448e-01
6.605677e-01
5.000000e-01
3.415326e-01
2.037129e-01
9.864271e-02
2.980151e-02
-6.988549e-03
-2.045023e-02
-2.025776e-02
-1.436460e-02
-7.840073e-03
-3.014213e-03
-3.267794e-04
7.150764e-04
8.267928e-04
5.780453e-04
2.934875e-04
9.762983e-05
9.004737e-07
-2.907361e-05
-2.719453e-05
-1.630908e-05
-6.868116e-06
-1.487540e-06
6.212662e-07
9.658119e-07
6.760085e-07
3.253054e-07
9.901288e-08
-1.736068e-09
-2.764015e-08
-2.301584e-08
-1.227263e-08
-4.398600e-09
-5.525010e-10
6.501837e-10
6.760977e-10
3.953923e-10
1.576426e-10
3.202208e-11
-1.223977e-11
-1.763801e-11
-1.130163e-11
-4.888447e-12
-1.242879e-12
1.573579e-13
4.160044e-13
2.935590e-13
1.360309e-13
3.975393e-14
1.224088e-16
-8.964481e-15
-7.043272e-15
-3.473809e-15
-1.121693e-15
-9.383653e-17
1.772804e-16
1.579170e-16
8.265332e-17
2.886108e-17
4.041561e-18
-3.209868e-18
-3.337016e-18
-1.852406e-18
-6.905590e-19
-1.262002e-19
5.252725e-20
6.687998e-20
3.942600e-20
1.000471e-20
9.999972e-01
9.998832e-01
9.997756e-01
1.000823e+00
1.004921e+00
1.012141e+00
1.017536e+00
1.010433e+00
9.775278e-01
9.082449e-01
7.996204e-01
6.584674e-01
5.000000e-01
3.435170e-01
2.068691e-01
1.018510e-01
3.211992e-02
-5.993272e-03
-2.066047e-02
-2.120549e-02
-1.551452e-02
-8.802632e-03
-3.621789e-03
-5.948698e-04
6.772242e-04
8.978557e-04
6.704782e-04
3.638589e-04
1.359712e-04
1.433277e-05
-2.920534e-05
-3.197274e-05
-2.092279e-05
-9.729598e-06
-2.715851e-06
3.738745e-07
1.117861e-06
8.915320e-07
4.760679e-07
1.714466e-07
1.919895e-08
-2.986006e-08
-3.091525e-08
-1.857077e-08
-7.691853e-09
-1.675941e-09
5.763684e-10
9.140163e-10
6.171041e-10
2.825050e-10
7.929406e-11
-4.903014e-12
-2.362183e-11
-1.812467e-11
-9.014627e-12
-2.930241e-12
-2.008111e-13
5.394859e-13
4.815568e-13
2.582724e-13
9.300665e-14
1.361440e-14
-1.085483e-14
-1.175614e-14
-6.784054e-15
-2.646258e-15
-5.291276e-16
1.874367e-16
2.665603e-16
1.657437e-16
6.915162e-17
1.662336e-17
-2.534116e-18
-5.654823e-18
-3.805954e-18
-1.685946e-18
-4.602662e-19
1.596491e-20
1.127464e-19
7.254996e-20
1.000001e+00
9.999527e-01
9.997686e-01
9.998242e-01
1.001494e+00
1.006385e+00
1.013848e+00
1.018436e+00
1.009675e+00
9.750161e-01
9.047173e-01
7.962871e-01
6.564830e-01
5.000000e-01
3.453918e-01
2.098616e-01
1.049205e-01
3.438294e-02
-4.962121e-03
-2.078145e-02
-2.206361e-02
-1.661155e-02
-9.757163e-03
-4.251944e-03
-8.947533e-04
6.143837e-04
9.567851e-04
7.617604e-04
4.388735e-04
1.800232e-04
3.193215e-05
-2.731270e-05
-3.633432e-05
-2.590923e-05
-1.313122e-05
-4.347664e-06
-7.733654e-08
1.213189e-06
1.122558e-06
6.607611e-07
2.708206e-07
5.434962e-08
-2.746834e-08
-3.901789e-08
-2.646969e-08
-1.236914e-08
-3.562923e-09
2.296834e-10
1.132071e-09
8.994326e-10
4.658462e-10
1.603299e-10
1.538140e-11
-2.773570e-11
-2.685662e-11
-1.526153e-11
-5.901461e-12
-1.079993e-12
5.619456e-13
7.201847e-13
4.484496e-13
1.895062e-13
4.553329e-14
-8.487232e-15
-1.758277e-14
-1.205584e-14
-5.489069e-15
-1.551437e-15
4.448273e-17
3.939131e-16
3.006224e-16
1.463801e-16
4.634983e-17
3.042108e-18
-8.119092e-18
-7.022674e-18
-3.644202e-18
-1.259528e-18
-1.637261e-19
2.097085e-19
1.000001e+00
9.999888e-01
9.998755e-01
9.996645e-01
9.999727e-01
1.002271e+00
1.007828e+00
1.015392e+00
1.019152e+00
1.008839e+00
9.725756e-01
9.013573e-01
7.931309e-01
6.546082e-01
5.000000e-01
3.471645e-01
2.127034e-01
1.078624e-01
3.659304e-02
-3.901740e-03
-2.082331e-02
-2.283917e-02
-1.765671e-02
-1.070009e-02
-4.899986e-03
-1.223364e-03
5.271978e-04
1.002556e-03
8.504245e-04
5.174838e-04
2.294075e-04
5.381147e-05
-2.309596e-05
-4.001708e-05
-3.113023e-05
-1.704473e-05
-6.412656e-06
-7.741151e-07
1.221725e-06
1.355435e-06
8.773496e-07
4.002039e-07
1.074182e-07
-1.800522e-08
-4.627095e-08
-3.581320e-08
-1.863499e-08
-6.453681e-09
-5.447643e-10
1.264973e-09
1.231457e-09
7.178466e-10
2.875130e-10
5.656474e-11
-2.661090e-11
-3.685401e-11
-2.403503e-11
-1.069094e-11
-2.827087e-12
3.341723e-13
9.774270e-13
7.199909e-13
3.492543e-13
1.091391e-13
3.959289e-15
-2.314647e-14
-1.966205e-14
-1.031582e-14
-3.614984e-15
-4.557040e-16
4.875832e-16
4.958220e-16
2.806065e-16
1.074047e-16
2.005705e-17
-8.930167e-18
-1.164903e-17
-7.120010e-18
-2.933112e-18
-1.826116e-19
1.000000e+00
1.000001e+00
9.999560e-01
9.997762e-01
9.995910e-01
1.000214e+00
1.003121e+00
1.009234e+00
1.016791e+00
1.019712e+00
1.007940e+00
9.701985e-01
8.981490e-01
7.901384e-01
6.528355e-01
5.000000e-01
3.488429e-01
2.154064e-01
1.106862e-01
3.875216e-02
-2.817843e-03
-2.079477e-02
-2.353847e-02
-1.865126e-02
-1.162863e-02
-5.561849e-03
-1.577796e-03
4.165202e-04
1.034450e-03
9.351981e-04
5.986735e-04
2.836758e-04
7.999682e-05
-1.630788e-05
-4.276964e-05
-3.643365e-05
-2.142304e-05
-8.928035e-06
-1.754130e-06
1.112080e-06
1.573504e-06
1.121400e-06
5.615398e-07
1.819596e-07
1.280867e-09
-5.128657e-08
-4.623401e-08
-2.661566e-08
-1.058996e-08
-1.930630e-09
1.221235e-09
1.587770e-09
1.044086e-09
4.737617e-10
1.285626e-10
-1.527753e-11
-4.665184e-11
-3.550226e-11
-1.787126e-11
-5.894386e-12
-3.741762e-13
1.181354e-12
1.075179e-12
5.940680e-13
2.224190e-13
3.584649e-14
-2.536529e-14
-2.950323e-14
-1.785868e-14
-7.358044e-15
-1.653969e-15
4.298436e-16
7.415693e-16
4.938350e-16
2.203532e-16
5.981345e-17
-4.008488e-18
-1.717796e-17
-1.271201e-17
-4.379655e-18
1.000000e+00
1.000002e+00
9.999931e-01
9.999017e-01
9.996675e-01
9.995591e-01
1.000538e+00
1.004023e+00
1.010594e+00
1.018060e+00
1.020139e+00
1.006989e+00
9.678801e-01
8.950795e-01
7.872966e-01
6.511571e-01
5.000000e-01
3.504344e-01
2.179816e-01
1.134004e-01
4.086202e-02
-1.715352e-03
-2.070342e-02
-2.416721e-02
-1.959665e-02
-1.254057e-02
-6.234005e-03
-1.955322e-03
2.833471e-04
1.052003e-03
1.014991e-03
6.814758e-04
3.423326e-04
1.104401e-04
-6.753319e-06
-4.435718e-05
-4.165914e-05
-2.620290e-05
-1.189846e-05
-3.049679e-06
8.527314e-07
1.757666e-06
1.386112e-06
7.554377e-07
2.811725e-07
3.332003e-08
-5.236549e-08
-5.713180e-08
-3.632947e-08
-1.619560e-08
-4.133252e-09
8.826336e-10
1.925435e-09
1.442931e-09
7.311921e-10
2.429305e-10
1.299313e-11
-5.371261e-11
-4.941690e-11
-2.797779e-11
-1.082808e-11
-1.888189e-12
1.204461e-12
1.495527e-12
9.438938e-13
4.077638e-13
1.008940e-13
-1.864738e-14
-4.055050e-14
-2.875518e-14
-1.359562e-14
-4.067301e-15
2.011087e-18
9.905453e-16
8.035875e-16
4.119983e-16
1.400037e-16
1.440423e-17
-2.171691e-17
-1.937819e-17
1.000000e+00
1.000002e+00
1.000004e+00
9.999740e-01
9.998285e-01
9.995604e-01
9.995738e-01
1.000932e+00
1.004957e+00
1.011904e+00
1.019212e+00
1.020450e+00
1.005993e+00
9.656171e-01
8.921376e-01
7.845936e-01
6.495656e-01
5.000000e-01
3.519457e-01
2.204388e-01
1.160126e-01
4.292416e-02
-5.985043e-04
-2.055595e-02
-2.473054e-02
-2.049444e-02
-1.343424e-02
-6.913391e-03
-2.353399e-03
1.287665e-04
1.054959e-03
1.088882e-03
7.649840e-04
4.048538e-04
1.450314e-04
5.712848e-06
-4.456554e-05
-4.664308e-05
-3.130775e-05
-1.531646e-05
-4.686782e-06
4.130952e-07
1.887010e-06
1.662456e-06
9.810370e-07
4.077101e-07
8.109614e-08
-4.753941e-08
-6.766357e-08
-4.766111e-08
-2.345586e-08
-7.369938e-09
1.056211e-10
2.181728e-09
1.902916e-09
1.069489e-09
4.122780e-10
6.671269e-11
-5.420381e-11
-6.492408e-11
-4.140511e-11
-1.823843e-11
-4.634331e-12
8.481849e-13
1.930036e-12
1.411195e-12
6.906143e-13
2.176964e-13
5.971516e-15
-5.024543e-14
-4.328028e-14
-2.326246e-14
-8.417195e-15
-1.156335e-15
1.130973e-15
1.211400e-15
7.131088e-16
2.859719e-16
5.943741e-17
-3.615847e-17
1.000000e+00
1.000001e+00
1.000004e+00
1.000002e+00
9.999415e-01
9.997411e-01
9.994634e-01
9.996363e-01
1.001386e+00
1.005910e+00
1.013161e+00
1.020258e+00
1.020660e+00
1.004962e+00
9.634070e-01
8.893138e-01
7.820184e-01
6.480543e-01
5.000000e-01
3.533834e-01
2.227870e-01
1.185294e-01
4.494006e-02
5.290524e-04
-2.035821e-02
-2.523317e-02
-2.134624e-02
-1.430834e-02
-7.597343e-03
-2.769664e-03
-4.607969e-05
1.043232e-03
1.156102e-03
8.483582e-04
4.707017e-04
1.836097e-04
2.118907e-05
-4.320375e-05
-5.122274e-05
-3.665056e-05
-1.916323e-05
-6.684614e-06
-2.355536e-07
1.939462e-06