# vtk DataFile Version 3.0
9.SOU_1Pe = 1,Grid 81x81,063497.vtk
ASCII
DATASET STRUCTURED_GRID
DIMENSIONS 81 81 1
POINTS 6561 double
0.000000e+00 0.000000e+00 0.0
1.250000e-02 0.000000e+00 0.0
2.500000e-02 0.000000e+00 0.0
3.750000e-02 0.000000e+00 0.0
5.000000e-02 0.000000e+00 0.0
6.250000e-02 0.000000e+00 0.0
7.500000e-02 0.000000e+00 0.0
8.750000e-02 0.000000e+00 0.0
1.000000e-01 0.000000e+00 0.0
1.125000e-01 0.000000e+00 0.0
1.250000e-01 0.000000e+00 0.0
1.375000e-01 0.000000e+00 0.0
1.500000e-01 0.000000e+00 0.0
1.625000e-01 0.000000e+00 0.0
1.750000e-01 0.000000e+00 0.0
1.875000e-01 0.000000e+00 0.0
2.000000e-01 0.000000e+00 0.0
2.125000e-01 0.000000e+00 0.0
2.250000e-01 0.000000e+00 0.0
2.375000e-01 0.000000e+00 0.0
2.500000e-01 0.000000e+00 0.0
2.625000e-01 0.000000e+00 0.0
2.750000e-01 0.000000e+00 0.0
2.875000e-01 0.000000e+00 0.0
3.000000e-01 0.000000e+00 0.0
3.125000e-01 0.000000e+00 0.0
3.250000e-01 0.000000e+00 0.0
3.375000e-01 0.000000e+00 0.0
3.500000e-01 0.000000e+00 0.0
3.625000e-01 0.000000e+00 0.0
3.750000e-01 0.000000e+00 0.0
3.875000e-01 0.000000e+00 0.0
4.000000e-01 0.000000e+00 0.0
4.125000e-01 0.000000e+00 0.0
4.250000e-01 0.000000e+00 0.0
4.375000e-01 0.000000e+00 0.0
4.500000e-01 0.000000e+00 0.0
4.625000e-01 0.000000e+00 0.0
4.750000e-01 0.000000e+00 0.0
4.875000e-01 0.000000e+00 0.0
5.000000e-01 0.000000e+00 0.0
5.125000e-01 0.000000e+00 0.0
5.250000e-01 0.000000e+00 0.0
5.375000e-01 0.000000e+00 0.0
5.500000e-01 0.000000e+00 0.0
5.625000e-01 0.000000e+00 0.0
5.750000e-01 0.000000e+00 0.0
5.875000e-01 0.000000e+00 0.0
6.000000e-01 0.000000e+00 0.0
6.125000e-01 0.000000e+00 0.0
6.250000e-01 0.000000e+00 0.0
6.375000e-01 0.000000e+00 0.0
6.500000e-01 0.000000e+00 0.0
6.625000e-01 0.000000e+00 0.0
6.750000e-01 0.000000e+00 0.0
6.875000e-01 0.000000e+00 0.0
7.000000e-01 0.000000e+00 0.0
7.125000e-01 0.000000e+00 0.0
7.250000e-01 0.000000e+00 0.0
7.375000e-01 0.000000e+00 0.0
7.500000e-01 0.000000e+00 0.0
7.625000e-01 0.000000e+00 0.0
7.750000e-01 0.000000e+00 0.0
7.875000e-01 0.000000e+00 0.0
8.000000e-01 0.000000e+00 0.0
8.125000e-01 0.000000e+00 0.0
8.250000e-01 0.000000e+00 0.0
8.375000e-01 0.000000e+00 0.0
8.500000e-01 0.000000e+00 0.0
8.625000e-01 0.000000e+00 0.0
8.750000e-01 0.000000e+00 0.0
8.875000e-01 0.000000e+00 0.0
9.000000e-01 0.000000e+00 0.0
9.125000e-01 0.000000e+00 0.0
9.250000e-01 0.000000e+00 0.0
9.375000e-01 0.000000e+00 0.0
9.500000e-01 0.000000e+00 0.0
9.625000e-01 0.000000e+00 0.0
9.750000e-01 0.000000e+00 0.0
9.875000e-01 0.000000e+00 0.0
1.000000e+00 0.000000e+00 0.0
0.000000e+00 1.250000e-02 0.0
1.250000e-02 1.250000e-02 0.0
2.500000e-02 1.250000e-02 0.0
3.750000e-02 1.250000e-02 0.0
5.000000e-02 1.250000e-02 0.0
6.250000e-02 1.250000e-02 0.0
7.500000e-02 1.250000e-02 0.0
8.750000e-02 1.250000e-02 0.0
1.000000e-01 1.250000e-02 0.0
1.125000e-01 1.250000e-02 0.0
1.250000e-01 1.250000e-02 0.0
1.375000e-01 1.250000e-02 0.0
1.500000e-01 1.250000e-02 0.0
1.625000e-01 1.250000e-02 0.0
1.750000e-01 1.250000e-02 0.0
1.875000e-01 1.250000e-02 0.0
2.000000e-01 1.250000e-02 0.0
2.125000e-01 1.250000e-02 0.0
2.250000e-01 1.250000e-02 0.0
2.375000e-01 1.250000e-02 0.0
2.500000e-01 1.250000e-02 0.0
2.625000e-01 1.250000e-02 0.0
2.750000e-01 1.250000e-02 0.0
2.875000e-01 1.250000e-02 0.0
3.000000e-01 1.250000e-02 0.0
3.125000e-01 1.250000e-02 0.0
3.250000e-01 1.250000e-02 0.0
3.375000e-01 1.250000e-02 0.0
3.500000e-01 1.250000e-02 0.0
3.625000e-01 1.250000e-02 0.0
3.750000e-01 1.250000e-02 0.0
3.875000e-01 1.250000e-02 0.0
4.000000e-01 1.250000e-02 0.0
4.125000e-01 1.250000e-02 0.0
4.250000e-01 1.250000e-02 0.0
4.375000e-01 1.250000e-02 0.0
4.500000e-01 1.250000e-02 0.0
4.625000e-01 1.250000e-02 0.0
4.750000e-01 1.250000e-02 0.0
4.875000e-01 1.250000e-02 0.0
5.000000e-01 1.250000e-02 0.0
5.125000e-01 1.250000e-02 0.0
5.250000e-01 1.250000e-02 0.0
5.375000e-01 1.250000e-02 0.0
5.500000e-01 1.250000e-02 0.0
5.625000e-01 1.250000e-02 0.0
5.750000e-01 1.250000e-02 0.0
5.875000e-01 1.250000e-02 0.0
6.000000e-01 1.250000e-02 0.0
6.125000e-01 1.250000e-02 0.0
6.250000e-01 1.250000e-02 0.0
6.375000e-01 1.250000e-02 0.0
6.500000e-01 1.250000e-02 0.0
6.625000e-01 1.250000e-02 0.0
6.750000e-01 1.250000e-02 0.0
6.875000e-01 1.250000e-02 0.0
7.000000e-01 1.250000e-02 0.0
7.125000e-01 1.250000e-02 0.0
7.250000e-01 1.250000e-02 0.0
7.375000e-01 1.250000e-02 0.0
7.500000e-01 1.250000e-02 0.0
7.625000e-01 1.250000e-02 0.0
7.750000e-01 1.250000e-02 0.0
7.875000e-01 1.250000e-02 0.0
8.000000e-01 1.250000e-02 0.0
8.125000e-01 1.250000e-02 0.0
8.250000e-01 1.250000e-02 0.0
8.375000e-01 1.250000e-02 0.0
8.500000e-01 1.250000e-02 0.0
8.625000e-01 1.250000e-02 0.0
8.750000e-01 1.250000e-02 0.0
8.875000e-01 1.250000e-02 0.0
9.000000e-01 1.250000e-02 0.0
9.125000e-01 1.250000e-02 0.0
9.250000e-01 1.250000e-02 0.0
9.375000e-01 1.250000e-02 0.0
9.500000e-01 1.250000e-02 0.0
9.625000e-01 1.250000e-02 0.0
9.750000e-01 1.250000e-02 0.0
9.875000e-01 1.250000e-02 0.0
1.000000e+00 1.250000e-02 0.0
0.000000e+00 2.500000e-02 0.0
1.250000e-02 2.500000e-02 0.0
2.500000e-02 2.500000e-02 0.0
3.750000e-02 2.500000e-02 0.0
5.000000e-02 2.500000e-02 0.0
6.250000e-02 2.500000e-02 0.0
7.500000e-02 2.500000e-02 0.0
8.750000e-02 2.500000e-02 0.0
1.000000e-01 2.500000e-02 0.0
1.125000e-01 2.500000e-02 0.0
1.250000e-01 2.500000e-02 0.0
1.375000e-01 2.500000e-02 0.0
1.500000e-01 2.500000e-02 0.0
1.625000e-01 2.500000e-02 0.0
1.750000e-01 2.500000e-02 0.0
1.875000e-01 2.500000e-02 0.0
2.000000e-01 2.500000e-02 0.0
2.125000e-01 2.500000e-02 0.0
2.250000e-01 2.500000e-02 0.0
2.375000e-01 2.500000e-02 0.0
2.500000e-01 2.500000e-02 0.0
2.625000e-01 2.500000e-02 0.0
2.750000e-01 2.500000e-02 0.0
2.875000e-01 2.500000e-02 0.0
3.000000e-01 2.500000e-02 0.0
3.125000e-01 2.500000e-02 0.0
3.250000e-01 2.500000e-02 0.0
3.375000e-01 2.500000e-02 0.0
3.500000e-01 2.500000e-02 0.0
3.625000e-01 2.500000e-02 0.0
3.750000e-01 2.500000e-02 0.0
3.875000e-01 2.500000e-02 0.0
4.000000e-01 2.500000e-02 0.0
4.125000e-01 2.500000e-02 0.0
4.250000e-01 2.500000e-02 0.0
4.375000e-01 2.500000e-02 0.0
4.500000e-01 2.500000e-02 0.0
4.625000e-01 2.500000e-02 0.0
4.750000e-01 2.500000e-02 0.0
4.875000e-01 2.500000e-02 0.0
5.000000e-01 2.500000e-02 0.0
5.125000e-01 2.500000e-02 0.0
5.250000e-01 2.500000e-02 0.0
5.375000e-01 2.500000e-02 0.0
5.500000e-01 2.500000e-02 0.0
5.625000e-01 2.500000e-02 0.0
5.750000e-01 2.500000e-02 0.0
5.875000e-01 2.500000e-02 0.0
6.000000e-01 2.500000e-02 0.0
6.125000e-01 2.500000e-02 0.0
6.250000e-01 2.500000e-02 0.0
6.375000e-01 2.500000e-02 0.0
6.500000e-01 2.500000e-02 0.0
6.625000e-01 2.500000e-02 0.0
6.750000e-01 2.500000e-02 0.0
6.875000e-01 2.500000e-02 0.0
7.000000e-01 2.500000e-02 0.0
7.125000e-01 2.500000e-02 0.0
7.250000e-01 2.500000e-02 0.0
7.375000e-01 2.500000e-02 0.0
7.500000e-01 2.500000e-02 0.0
7.625000e-01 2.500000e-02 0.0
7.750000e-01 2.500000e-02 0.0
7.875000e-01 2.500000e-02 0.0
8.000000e-01 2.500000e-02 0.0
8.125000e-01 2.500000e-02 0.0
8.250000e-01 2.500000e-02 0.0
8.375000e-01 2.500000e-02 0.0
8.500000e-01 2.500000e-02 0.0
8.625000e-01 2.500000e-02 0.0
8.750000e-01 2.500000e-02 0.0
8.875000e-01 2.500000e-02 0.0
9.000000e-01 2.500000e-02 0.0
9.125000e-01 2.500000e-02 0.0
9.250000e-01 2.500000e-02 0.0
9.375000e-01 2.500000e-02 0.0
9.500000e-01 2.500000e-02 0.0
9.625000e-01 2.500000e-02 0.0
9.750000e-01 2.500000e-02 0.0
9.875000e-01 2.500000e-02 0.0
1.000000e+00 2.500000e-02 0.0
0.000000e+00 3.750000e-02 0.0
1.250000e-02 3.750000e-02 0.0
2.500000e-02 3.750000e-02 0.0
3.750000e-02 3.750000e-02 0.0
5.000000e-02 3.750000e-02 0.0
6.250000e-02 3.750000e-02 0.0
7.500000e-02 3.750000e-02 0.0
8.750000e-02 3.750000e-02 0.0
1.000000e-01 3.750000e-02 0.0
1.125000e-01 3.750000e-02 0.0
1.250000e-01 3.750000e-02 0.0
1.375000e-01 3.750000e-02 0.0
1.500000e-01 3.750000e-02 0.0
1.625000e-01 3.750000e-02 0.0
1.750000e-01 3.750000e-02 0.0
1.875000e-01 3.750000e-02 0.0
2.000000e-01 3.750000e-02 0.0
2.125000e-01 3.750000e-02 0.0
2.250000e-01 3.750000e-02 0.0
2.375000e-01 3.750000e-02 0.0
2.500000e-01 3.750000e-02 0.0
2.625000e-01 3.750000e-02 0.0
2.750000e-01 3.750000e-02 0.0
2.875000e-01 3.750000e-02 0.0
3.000000e-01 3.750000e-02 0.0
3.125000e-01 3.750000e-02 0.0
3.250000e-01 3.750000e-02 0.0
3.375000e-01 3.750000e-02 0.0
3.500000e-01 3.750000e-02 0.0
3.625000e-01 3.750000e-02 0.0
3.750000e-01 3.750000e-02 0.0
3.875000e-01 3.750000e-02 0.0
4.000000e-01 3.750000e-02 0.0
4.125000e-01 3.750000e-02 0.0
4.250000e-01 3.750000e-02 0.0
4.375000e-01 3.750000e-02 0.0
4.500000e-01 3.750000e-02 0.0
4.625000e-01 3.750000e-02 0.0
4.750000e-01 3.750000e-02 0.0
4.875000e-01 3.750000e-02 0.0
5.000000e-01 3.750000e-02 0.0
5.125000e-01 3.750000e-02 0.0
5.250000e-01 3.750000e-02 0.0
5.375000e-01 3.750000e-02 0.0
5.500000e-01 3.750000e-02 0.0
5.625000e-01 3.750000e-02 0.0
5.750000e-01 3.750000e-02 0.0
5.875000e-01 3.750000e-02 0.0
6.000000e-01 3.750000e-02 0.0
6.125000e-01 3.750000e-02 0.0
6.250000e-01 3.750000e-02 0.0
6.375000e-01 3.750000e-02 0.0
6.500000e-01 3.750000e-02 0.0
6.625000e-01 3.750000e-02 0.0
6.750000e-01 3.750000e-02 0.0
6.875000e-01 3.750000e-02 0.0
7.000000e-01 3.750000e-02 0.0
7.125000e-01 3.750000e-02 0.0
7.250000e-01 3.750000e-02 0.0
7.375000e-01 3.750000e-02 0.0
7.500000e-01 3.750000e-02 0.0
7.625000e-01 3.750000e-02 0.0
7.750000e-01 3.750000e-02 0.0
7.875000e-01 3.750000e-02 0.0
8.000000e-01 3.750000e-02 0.0
8.125000e-01 3.750000e-02 0.0
8.250000e-01 3.750000e-02 0.0
8.375000e-01 3.750000e-02 0.0
8.500000e-01 3.750000e-02 0.0
8.625000e-01 3.750000e-02 0.0
8.750000e-01 3.750000e-02 0.0
8.875000e-01 3.750000e-02 0.0
9.000000e-01 3.750000e-02 0.0
9.125000e-01 3.750000e-02 0.0
9.250000e-01 3.750000e-02 0.0
9.375000e-01 3.750000e-02 0.0
9.500000e-01 3.750000e-02 0.0
9.625000e-01 3.750000e-02 0.0
9.750000e-01 3.750000e-02 0.0
9.875000e-01 3.750000e-02 0.0
1.000000e+00 3.750000e-02 0.0
0.000000e+00 5.000000e-02 0.0
1.250000e-02 5.000000e-02 0.0
2.500000e-02 5.000000e-02 0.0
3.750000e-02 5.000000e-02 0.0
[...]
CELL_DATA 6400
SCALARS Temperature double 1
LOOKUP_TABLE default
5.000000e-01
2.274395e-01
1.331851e-01
9.261335e-02
7.098936e-02
5.760520e-02
4.847659e-02
4.183629e-02
3.678247e-02
3.280475e-02
2.959148e-02
2.694118e-02
2.471764e-02
2.282541e-02
2.119558e-02
1.977716e-02
1.853157e-02
1.742913e-02
1.644656e-02
1.556542e-02
1.477087e-02
1.405082e-02
1.339536e-02
1.279627e-02
1.224667e-02
1.174077e-02
1.127366e-02
1.084114e-02
1.043960e-02
1.006593e-02
9.717438e-03
9.391756e-03
9.086824e-03
8.800825e-03
8.532158e-03
8.279401e-03
8.041294e-03
7.816709e-03
7.604642e-03
7.404188e-03
7.214537e-03
7.034958e-03
6.864791e-03
6.703438e-03
6.550358e-03
6.405058e-03
6.267092e-03
6.136053e-03
6.011568e-03
5.893298e-03
5.780933e-03
5.674190e-03
5.572809e-03
5.476552e-03
5.385200e-03
5.298556e-03
5.216435e-03
5.138671e-03
5.065110e-03
4.995613e-03
4.930051e-03
4.868310e-03
4.810281e-03
4.755871e-03
4.704993e-03
4.657568e-03
4.613528e-03
4.572811e-03
4.535363e-03
4.501137e-03
4.470094e-03
4.442201e-03
4.417430e-03
4.395762e-03
4.377182e-03
4.361681e-03
4.349259e-03
4.339918e-03
4.333669e-03
4.330526e-03
7.725605e-01
5.000000e-01
3.481821e-01
2.604081e-01
2.058758e-01
1.694965e-01
1.437366e-01
1.246142e-01
1.098839e-01
9.819931e-02
8.870956e-02
8.085210e-02
7.424079e-02
6.860206e-02
6.373679e-02
5.949665e-02
5.576894e-02
5.246649e-02
4.952085e-02
4.687751e-02
4.449256e-02
4.233021e-02
4.036099e-02
3.856047e-02
3.690816e-02
3.538680e-02
3.398172e-02
3.268040e-02
3.147206e-02
3.034739e-02
2.929831e-02
2.831777e-02
2.739957e-02
2.653828e-02
2.572909e-02
2.496775e-02
2.425047e-02
2.357387e-02
2.293492e-02
2.233093e-02
2.175945e-02
2.121828e-02
2.070545e-02
2.021915e-02
1.975777e-02
1.931982e-02
1.890395e-02
1.850895e-02
1.813369e-02
1.777715e-02
1.743841e-02
1.711660e-02
1.681094e-02
1.652073e-02
1.624531e-02
1.598406e-02
1.573646e-02
1.550198e-02
1.528017e-02
1.507062e-02
1.487292e-02
1.468675e-02
1.451176e-02
1.434769e-02
1.419426e-02
1.405125e-02
1.391844e-02
1.379565e-02
1.368272e-02
1.357951e-02
1.348589e-02
1.340178e-02
1.332707e-02
1.326173e-02
1.320569e-02
1.315895e-02
1.312148e-02
1.309331e-02
1.307447e-02
1.306499e-02
8.668149e-01
6.518179e-01
5.000000e-01
3.958745e-01
3.234349e-01
2.715014e-01
2.330126e-01
2.035882e-01
1.804728e-01
1.618863e-01
1.466434e-01
1.339313e-01
1.231766e-01
1.139649e-01
1.059899e-01
9.902080e-02
9.288026e-02
8.743021e-02
8.256150e-02
7.818675e-02
7.423523e-02
7.064907e-02
6.738051e-02
6.438977e-02
6.164347e-02
5.911340e-02
5.677555e-02
5.460937e-02
5.259716e-02
5.072362e-02
4.897544e-02
4.734098e-02
4.581004e-02
4.437365e-02
4.302385e-02
4.175360e-02
4.055665e-02
3.942739e-02
3.836081e-02
3.735243e-02
3.639821e-02
3.549449e-02
3.463799e-02
3.382572e-02
3.305499e-02
3.232334e-02
3.162852e-02
3.096851e-02
3.034144e-02
2.974561e-02
2.917949e-02
2.864163e-02
2.813075e-02
2.764565e-02
2.718525e-02
2.674853e-02
2.633459e-02
2.594259e-02
2.557175e-02
2.522138e-02
2.489084e-02
2.457954e-02
2.428695e-02
2.401259e-02
2.375604e-02
2.351689e-02
2.329480e-02
2.308946e-02
2.290061e-02
2.272800e-02
2.257144e-02
2.243076e-02
2.230582e-02
2.219654e-02
2.210282e-02
2.202464e-02
2.196199e-02
2.191487e-02
2.188335e-02
2.186750e-02
9.073866e-01
7.395919e-01
6.041255e-01
5.000000e-01
4.209502e-01
3.605512e-01
3.137062e-01
2.767145e-01
2.469693e-01
2.226407e-01
2.024335e-01
1.854173e-01
1.709128e-01
1.584155e-01
1.475445e-01
1.380077e-01
1.295779e-01
1.220762e-01
1.153596e-01
1.093130e-01
1.038425e-01
9.887073e-02
9.433378e-02
9.017802e-02
8.635833e-02
8.283645e-02
7.957975e-02
7.656019e-02
7.375362e-02
7.113907e-02
6.869828e-02
6.641529e-02
6.427606e-02
6.226821e-02
6.038080e-02
5.860409e-02
5.692944e-02
5.534909e-02
5.385613e-02
5.244432e-02
5.110806e-02
4.984231e-02
4.864248e-02
4.750445e-02
4.642444e-02
4.539905e-02
4.442516e-02
4.349995e-02
4.262082e-02
4.178542e-02
4.099157e-02
4.023730e-02
3.952079e-02
3.884040e-02
3.819458e-02
3.758196e-02
3.700125e-02
3.645128e-02
3.593098e-02
3.543937e-02
3.497555e-02
3.453872e-02
3.412813e-02
3.374310e-02
3.338305e-02
3.304741e-02
3.273570e-02
3.244750e-02
3.218243e-02
3.194015e-02
3.172040e-02
3.152293e-02
3.134756e-02
3.119415e-02
3.106260e-02
3.095286e-02
3.086490e-02
3.079877e-02
3.075452e-02
3.073227e-02
9.290106e-01
7.941242e-01
6.765651e-01
5.790498e-01
5.000000e-01
4.363256e-01
3.848674e-01
3.429315e-01
3.083878e-01
2.796067e-01
2.553558e-01
2.347033e-01
2.169414e-01
2.015271e-01
1.880401e-01
1.761513e-01
1.656005e-01
1.561796e-01
1.477207e-01
1.400870e-01
1.331661e-01
1.268649e-01
1.211056e-01
1.158229e-01
1.109615e-01
1.064742e-01
1.023208e-01
9.846651e-02
9.488132e-02
9.153911e-02
8.841706e-02
8.549519e-02
8.275589e-02
8.018361e-02
7.776458e-02
7.548654e-02
7.333857e-02
7.131089e-02
6.939474e-02
6.758223e-02
6.586628e-02
6.424046e-02
6.269898e-02
6.123657e-02
5.984847e-02
5.853033e-02
5.727818e-02
5.608843e-02
5.495777e-02
5.388320e-02
5.286195e-02
5.189151e-02
5.096955e-02
5.009396e-02
4.926279e-02
4.847427e-02
4.772676e-02
4.701876e-02
4.634891e-02
4.571595e-02
4.511874e-02
4.455624e-02
4.402750e-02
4.353166e-02
4.306795e-02
4.263566e-02
4.223419e-02
4.186298e-02
4.152154e-02
4.120946e-02
4.092637e-02
4.067199e-02
4.044608e-02
4.024845e-02
4.007898e-02
3.993760e-02
3.982429e-02
3.973908e-02
3.968208e-02
3.965341e-02
9.423948e-01
8.305035e-01
7.284986e-01
6.394488e-01
5.636744e-01
5.000000e-01
4.466925e-01
4.019823e-01
3.642915e-01
3.323004e-01
3.049403e-01
2.813582e-01
2.608774e-01
2.429607e-01
2.271800e-01
2.131924e-01
2.007213e-01
1.895418e-01
1.794702e-01
1.703549e-01
1.620700e-01
1.545106e-01
1.475882e-01
1.412280e-01
1.353663e-01
1.299486e-01
1.249282e-01
1.202644e-01
1.159222e-01
1.118708e-01
1.080833e-01
1.045362e-01
1.012087e-01
9.808220e-02
9.514043e-02
9.236878e-02
8.975420e-02
8.728504e-02
8.495080e-02
8.274205e-02
8.065027e-02
7.866779e-02
7.678762e-02
7.500344e-02
7.330950e-02
7.170057e-02
7.017189e-02
6.871909e-02
6.733821e-02
6.602560e-02
6.477793e-02
6.359214e-02
6.246545e-02
6.139529e-02
6.037930e-02
5.941532e-02
5.850139e-02
5.763568e-02
5.681654e-02
5.604244e-02
5.531201e-02
5.462398e-02
5.397720e-02
5.337062e-02
5.280331e-02
5.227443e-02
5.178322e-02
5.132900e-02
5.091120e-02
5.052931e-02
5.018289e-02
4.987159e-02
4.959512e-02
4.935325e-02
4.914585e-02
4.897281e-02
4.883413e-02
4.872985e-02
4.866007e-02
4.862499e-02
9.515234e-01
8.562634e-01
7.669874e-01
6.862938e-01
6.151326e-01
5.533075e-01
5.000000e-01
4.541468e-01
4.146631e-01
3.805526e-01
3.509488e-01
3.251207e-01
3.024611e-01
2.824701e-01
2.647368e-01
2.489239e-01
2.347532e-01
2.219947e-01
2.104572e-01
1.999812e-01
1.904326e-01
1.816985e-01
1.736830e-01
1.663042e-01
1.594922e-01
1.531867e-01
1.473355e-01
1.418934e-01
1.368208e-01
1.320833e-01
1.276505e-01
1.234956e-01
1.195949e-01
1.159275e-01
1.124745e-01
1.092194e-01
1.061471e-01
1.032443e-01
1.004989e-01
9.790000e-02
9.543780e-02
9.310341e-02
9.088877e-02
8.878654e-02
8.679008e-02
8.489331e-02
8.309069e-02
8.137717e-02
7.974811e-02
7.819927e-02
7.672679e-02
7.532711e-02
7.399695e-02
7.273334e-02
7.153351e-02
7.039497e-02
6.931539e-02
6.829265e-02
6.732483e-02
6.641013e-02
6.554694e-02
6.473379e-02
6.396932e-02
6.325232e-02
6.258169e-02
6.195644e-02
6.137569e-02
6.083865e-02
6.034465e-02
5.989308e-02
5.948343e-02
5.911530e-02
5.878835e-02
5.850231e-02
5.825702e-02
5.805238e-02
5.788836e-02
5.776502e-02
5.768250e-02
5.764100e-02
9.581637e-01
8.753858e-01
7.964117e-01
7.232855e-01
6.570685e-01
5.980177e-01
5.458532e-01
5.000000e-01
4.597614e-01
4.244271e-01
3.933309e-01
3.658771e-01
3.415471e-01
3.198974e-01
3.005515e-01
2.831920e-01
2.675510e-01
2.534028e-01
2.405566e-01
2.288511e-01
2.181488e-01
2.083326e-01
1.993023e-01
1.909716e-01
1.832661e-01
1.761213e-01
1.694812e-01
1.632968e-01
1.575253e-01
1.521289e-01
1.470745e-01
1.423325e-01
1.378768e-01
1.336844e-01
1.297343e-01
1.260081e-01
1.224891e-01
1.191623e-01
1.160143e-01
1.130329e-01
1.102071e-01
1.075268e-01
1.049831e-01
1.025677e-01
1.002730e-01
9.809228e-02
9.601919e-02
9.404803e-02
9.217357e-02
9.039100e-02
8.869595e-02
8.708436e-02
8.555254e-02
8.409709e-02
8.271489e-02
8.140307e-02
8.015902e-02
7.898030e-02
7.786473e-02
7.681027e-02
7.581509e-02
7.487749e-02
7.399594e-02
7.316906e-02
7.239559e-02
7.167440e-02
7.100449e-02
7.038497e-02
6.981505e-02
6.929406e-02
6.882143e-02
6.839667e-02
6.801940e-02
6.768934e-02
6.740629e-02
6.717014e-02
6.698086e-02
6.683852e-02
6.674329e-02
6.669540e-02
9.632175e-01
8.901161e-01
8.195272e-01
7.530307e-01
6.916122e-01
6.357085e-01
5.853369e-01
5.402386e-01
5.000000e-01
4.641413e-01
4.321732e-01
4.036299e-01
3.780862e-01
3.551629e-01
3.345280e-01
3.158932e-01
2.990097e-01
2.836633e-01
2.696699e-01
2.568712e-01
2.451308e-01
2.343309e-01
2.243699e-01
2.151593e-01
2.066224e-01
1.986919e-01
1.913093e-01
1.844230e-01
1.779876e-01
1.719631e-01
1.663138e-01
1.610084e-01
1.560186e-01
1.513195e-01
1.468886e-01
1.427057e-01
1.387528e-01
1.350135e-01
1.314731e-01
1.281183e-01
1.249369e-01
1.219181e-01
1.190519e-01
1.163291e-01
1.137415e-01
1.112815e-01
1.089422e-01
1.067173e-01
1.046009e-01
1.025877e-01
1.006729e-01
9.885199e-02
9.712082e-02
9.547563e-02
9.391294e-02
9.242956e-02
9.102258e-02
8.968929e-02
8.842724e-02
8.723417e-02
8.610802e-02
8.504691e-02
8.404913e-02
8.311312e-02
8.223750e-02
8.142099e-02
8.066248e-02
7.996097e-02
7.931558e-02
7.872557e-02
7.819028e-02
7.770920e-02
7.728189e-02
7.690803e-02
7.658740e-02
7.631990e-02
7.610548e-02
7.594425e-02
7.583636e-02
7.578211e-02
9.671952e-01
9.018007e-01
8.381137e-01
7.773593e-01
7.203933e-01
6.676995e-01
6.194474e-01
5.755729e-01
5.358587e-01
5.000000e-01
4.676529e-01
4.384666e-01
4.121038e-01
3.882511e-01
3.666243e-01
3.469695e-01
3.290620e-01
3.127043e-01
2.977237e-01
2.839690e-01
2.713083e-01
2.596262e-01
2.488219e-01
2.388071e-01
2.295042e-01
2.208452e-01
2.127698e-01
2.052251e-01
1.981640e-01
1.915448e-01
1.853303e-01
1.794875e-01
1.739868e-01
1.688015e-01
1.639080e-01
1.592847e-01
1.549123e-01
1.507734e-01
1.468523e-01
1.431344e-01
1.396070e-01
1.362580e-01
1.330768e-01
1.300535e-01
1.271791e-01
1.244454e-01
1.218449e-01
1.193708e-01
1.170166e-01
1.147766e-01
1.126454e-01
1.106182e-01
1.086905e-01
1.068581e-01
1.051173e-01
1.034645e-01
1.018964e-01
1.004103e-01
9.900338e-02
9.767314e-02
9.641734e-02
9.523391e-02
9.412097e-02
9.307683e-02
9.209993e-02
9.118891e-02
9.034252e-02
8.955966e-02
8.883939e-02
8.818087e-02
8.758340e-02
8.704639e-02
8.656939e-02
8.615204e-02
8.579410e-02
8.549544e-02
8.525606e-02
8.507605e-02
8.495560e-02
8.489503e-02
9.704085e-01
9.112904e-01
8.533566e-01
7.975665e-01
7.446442e-01
6.950597e-01
6.490511e-01
6.066690e-01
5.678268e-01
5.323471e-01
5.000000e-01
4.705309e-01
4.436804e-01
4.191966e-01
3.968428e-01
3.764009e-01
3.576732e-01
3.404819e-01
3.246686e-01
3.100922e-01
2.966279e-01
2.841652e-01
2.726062e-01
2.618645e-01
2.518634e-01
2.425350e-01
2.338190e-01
2.256617e-01
2.180153e-01
2.108372e-01
2.040892e-01
1.977371e-01
1.917504e-01
1.861013e-01
1.807650e-01
1.757190e-01
1.709432e-01
1.664191e-01
1.621299e-01
1.580607e-01
1.541975e-01
1.505278e-01
1.470401e-01
1.437240e-01
1.405698e-01
1.375688e-01
1.347129e-01
1.319947e-01
1.294075e-01
1.269450e-01
1.246014e-01
1.223716e-01
1.202506e-01
1.182340e-01
1.163177e-01
1.144979e-01
1.127711e-01
1.111342e-01
1.095843e-01
1.081186e-01
1.067347e-01
1.054304e-01
1.042036e-01
1.030525e-01
1.019754e-01
1.009709e-01
1.000375e-01
9.917408e-02
9.837964e-02
9.765326e-02
9.699417e-02
9.640175e-02
9.587549e-02
9.541502e-02
9.502009e-02
9.469056e-02
9.442642e-02
9.422779e-02
9.409488e-02
9.402804e-02
9.730588e-01
9.191479e-01
8.660687e-01
8.145827e-01
7.652967e-01
7.186418e-01
6.748793e-01
6.341229e-01
5.963700e-01
5.615334e-01
5.294691e-01
5.000000e-01
4.729327e-01
4.480702e-01
4.252199e-01
4.041988e-01
3.848365e-01
3.669765e-01
3.504761e-01
3.352065e-01
3.210519e-01
3.079082e-01
2.956823e-01
2.842911e-01
2.736601e-01
2.637227e-01
2.544193e-01
2.456967e-01
2.375070e-01
2.298073e-01
2.225590e-01
2.157274e-01
2.092811e-01
2.031918e-01
1.974341e-01
1.919847e-01
1.868225e-01
1.819286e-01
1.772855e-01
1.728774e-01
1.686899e-01
1.647098e-01
1.609251e-01
1.573247e-01
1.538984e-01
1.506371e-01
1.475322e-01
1.445758e-01
1.417609e-01
1.390807e-01
1.365291e-01
1.341007e-01
1.317901e-01
1.295927e-01
1.275040e-01
1.255201e-01
1.236372e-01
1.218519e-01
1.201612e-01
1.185620e-01
1.170519e-01
1.156283e-01
1.142892e-01
1.130326e-01
1.118566e-01
1.107596e-01
1.097403e-01
1.087973e-01
1.079295e-01
1.071360e-01
1.064160e-01
1.057688e-01
1.051938e-01
1.046906e-01
1.042591e-01
1.038990e-01
1.036104e-01
1.033933e-01
1.032481e-01
1.031750e-01
9.752824e-01
9.257592e-01
8.768234e-01
8.290872e-01
7.830586e-01
7.391226e-01
6.975389e-01
6.584528e-01
6.219138e-01
5.878961e-01
5.563196e-01
5.270672e-01
5.000000e-01
4.749677e-01
4.518174e-01
4.303986e-01
4.105675e-01
3.921886e-01
3.751359e-01
3.592939e-01
3.445566e-01
3.308280e-01
3.180207e-01
3.060560e-01
2.948627e-01
2.843765e-01
2.745396e-01
2.652996e-01
2.566094e-01
2.484264e-01
2.407121e-01
2.334316e-01
2.265534e-01
2.200489e-01
2.138920e-01
2.080592e-01
2.025290e-01
1.972817e-01
1.922995e-01
1.875661e-01
1.830666e-01
1.787872e-01
1.747155e-01
1.708400e-01
1.671501e-01
1.636361e-01
1.602892e-01
1.571010e-01
1.540642e-01
1.511717e-01
1.484171e-01
1.457945e-01
1.432985e-01
1.409240e-01
1.386665e-01
1.365216e-01
1.344855e-01
1.325545e-01
1.307253e-01
1.289950e-01
1.273607e-01
1.258198e-01
1.243701e-01
1.230094e-01
1.217360e-01
1.205479e-01
1.194438e-01
1.184223e-01
1.174822e-01
1.166225e-01
1.158423e-01
1.151410e-01
1.145179e-01
1.139726e-01
1.135049e-01
1.131146e-01
1.128018e-01
1.125665e-01
1.124090e-01
1.123299e-01
9.771746e-01
9.313979e-01
8.860351e-01
8.415845e-01
7.984729e-01
7.570393e-01
7.175299e-01
6.801026e-01
6.448371e-01
6.117488e-01
5.808034e-01
5.519297e-01
5.250323e-01
5.000000e-01
4.767141e-01
4.550537e-01
4.348992e-01
4.161355e-01
3.986533e-01
3.823502e-01
3.671311e-01
3.529084e-01
3.396016e-01
3.271370e-01
3.154474e-01
3.044718e-01
2.941546e-01
2.844451e-01
2.752974e-01
2.666698e-01
2.585242e-01
2.508263e-01
2.435445e-01
2.366503e-01
2.301175e-01
2.239223e-01
2.180429e-01
2.124596e-01
2.071540e-01
2.021095e-01
1.973109e-01
1.927441e-01
1.883962e-01
1.842554e-01
1.803108e-01
1.765524e-01
1.729710e-01
1.695580e-01
1.663056e-01
1.632065e-01
1.602542e-01
1.574424e-01
1.547654e-01
1.522180e-01
1.497953e-01
1.474930e-01
1.453069e-01
1.432331e-01
1.412683e-01
1.394093e-01
1.376530e-01
1.359969e-01
1.344386e-01
1.329757e-01
1.316063e-01
1.303287e-01
1.291412e-01
1.280424e-01
1.270310e-01
1.261061e-01
1.252666e-01
1.245119e-01
1.238414e-01
1.232546e-01
1.227512e-01
1.223312e-01
1.219944e-01
1.217412e-01
1.215717e-01
1.214865e-01
9.788044e-01
9.362632e-01
8.940100e-01
8.524555e-01
8.119599e-01
7.728199e-01
7.352631e-01
6.994484e-01
6.654719e-01
6.333756e-01
6.031572e-01
5.747801e-01
5.481826e-01
5.232858e-01
5.000000e-01
4.782297e-01
4.578775e-01
4.388473e-01
4.210454e-01
4.043828e-01
3.887750e-01
3.741432e-01
3.604140e-01
3.475197e-01
3.353975e-01
3.239901e-01
3.132446e-01
3.031127e-01
2.935502e-01
2.845166e-01
2.759749e-01
2.678912e-01
2.602346e-01
2.529767e-01
2.460916e-01
2.395555e-01
2.333466e-01
2.274450e-01
2.218323e-01
2.164915e-01
2.114074e-01
2.065655e-01
2.019527e-01
1.975570e-01
1.933673e-01
1.893732e-01
1.855652e-01
1.819347e-01
1.784735e-01
1.751741e-01
1.720297e-01
1.690339e-01
1.661808e-01
1.634649e-01
1.608813e-01
1.584253e-01
1.560926e-01
1.538793e-01
1.517818e-01
1.497967e-01
1.479211e-01
1.461521e-01
1.444871e-01
1.429240e-01
1.414605e-01
1.400949e-01
1.388255e-01
1.376507e-01
1.365693e-01
1.355802e-01
1.346825e-01
1.338753e-01
1.331580e-01
1.325303e-01
1.319919e-01
1.315425e-01
1.311823e-01
1.309113e-01
1.307300e-01
1.306388e-01
9.802228e-01
9.405033e-01
9.009792e-01
8.619923e-01
8.238486e-01
7.868075e-01
7.510760e-01
7.168080e-01
6.841067e-01
6.530305e-01
6.235991e-01
5.958012e-01
5.696013e-01
5.449462e-01
5.217703e-01
5.000000e-01
4.795575e-01
4.603636e-01
4.423395e-01
4.254084e-01
4.094967e-01
3.945342e-01
3.804549e-01
3.671970e-01
3.547027e-01
3.429187e-01
3.317954e-01
3.212871e-01
3.113516e-01
3.019501e-01
2.930468e-01
2.846090e-01
2.766063e-01
2.690110e-01
2.617976e-01
2.549424e-01
2.484240e-01
2.422223e-01
2.363191e-01
2.306974e-01
2.253417e-01
2.202375e-01
2.153717e-01
2.107319e-01
2.063069e-01
2.020862e-01
1.980602e-01
1.942198e-01
1.905569e-01
1.870638e-01
1.837334e-01
1.805592e-01
1.775350e-01
1.746554e-01
1.719152e-01
1.693095e-01
1.668340e-01
1.644846e-01
1.622576e-01
1.601494e-01
1.581571e-01
1.562776e-01
1.545084e-01
1.528470e-01
1.512914e-01
1.498396e-01
1.484898e-01
1.472405e-01
1.460904e-01
1.450383e-01
1.440833e-01
1.432246e-01
1.424616e-01
1.417937e-01
1.412207e-01
1.407425e-01
1.403592e-01
1.400709e-01
1.398779e-01
1.397809e-01
9.814684e-01
9.442311e-01
9.071197e-01
8.704221e-01
8.343995e-01
7.992787e-01
7.652468e-01
7.324490e-01
7.009903e-01
6.709380e-01
6.423268e-01
6.151634e-01
5.894324e-01
5.651007e-01
5.421224e-01
5.204424e-01
5.000000e-01
4.807308e-01
4.625697e-01
4.454513e-01
4.293121e-01
4.140905e-01
3.997276e-01
3.861678e-01
3.733584e-01
3.612503e-01
3.497974e-01
3.389569e-01
3.286890e-01
3.189568e-01
3.097261e-01
3.009653e-01
2.926451e-01
2.847386e-01
2.772208e-01
2.700686e-01
2.632607e-01
2.567775e-01
2.506008e-01
2.447137e-01
2.391007e-01
2.337475e-01
2.286407e-01
2.237680e-01
2.191180e-01
2.146801e-01
2.104447e-01
2.064026e-01
2.025454e-01
1.988654e-01
1.953553e-01
1.920085e-01
1.888188e-01
1.857805e-01
1.828882e-01
1.801372e-01
1.775228e-01
1.750409e-01
1.726877e-01
1.704596e-01
1.683534e-01
1.663661e-01
1.644951e-01
1.627378e-01
1.610920e-01
1.595558e-01
1.581274e-01
1.568052e-01
1.555878e-01
1.544741e-01
1.534630e-01
1.525537e-01
1.517457e-01
1.510384e-01
1.504317e-01
1.499252e-01
1.495192e-01
1.492138e-01
1.490094e-01
1.489067e-01
9.825709e-01
9.475335e-01
9.125698e-01
8.779238e-01
8.438204e-01
8.104582e-01
7.780053e-01
7.465972e-01
7.163367e-01
6.872956e-01
6.595180e-01
6.330235e-01
6.078114e-01
5.838645e-01
5.611527e-01
5.396364e-01
5.192691e-01
5.000000e-01
4.817755e-01
4.645413e-01
4.482428e-01
4.328267e-01
4.182411e-01
4.044364e-01
3.913650e-01
3.789822e-01
3.672454e-01
3.561150e-01
3.455537e-01
3.355268e-01
3.260018e-01
3.169485e-01
3.083390e-01
3.001471e-01
2.923487e-01
2.849214e-01
2.778442e-01
2.710981e-01
2.646649e-01
2.585282e-01
2.526725e-01
2.470835e-01
2.417481e-01
2.366538e-01
2.317894e-01
2.271442e-01
2.227083e-01
2.184728e-01
2.144290e-01
2.105692e-01
2.068860e-01
2.033727e-01
2.000231e-01
1.968312e-01
1.937918e-01
1.908999e-01
1.881508e-01
1.855403e-01
1.830644e-01
1.807197e-01
1.785027e-01
1.764104e-01
1.744401e-01
1.725892e-01
1.708555e-01
1.692370e-01
1.677318e-01
1.663383e-01
1.650551e-01
1.638811e-01
1.628151e-01
1.618564e-01
1.610044e-01
1.602586e-01
1.596186e-01
1.590845e-01
1.586563e-01
1.583342e-01
1.581186e-01
1.580102e-01
9.835534e-01
9.504791e-01
9.174385e-01
8.846404e-01
8.522793e-01
8.205298e-01
7.895428e-01
7.594433e-01
7.303301e-01
7.022762e-01
6.753314e-01
6.495239e-01
6.248640e-01
6.013467e-01
5.789545e-01
5.576605e-01
5.374303e-01
5.182244e-01
5.000000e-01
4.827120e-01
4.663146e-01
4.507619e-01
4.360088e-01
4.220114e-01
4.087271e-01
3.961155e-01
3.841379e-01
3.727577e-01
3.619402e-01
3.516531e-01
3.418658e-01
3.325497e-01
3.236782e-01
3.152263e-01
3.071708e-01
2.994900e-01
2.921636e-01
2.851729e-01
2.785005e-01
2.721299e-01
2.660461e-01
2.602350e-01
2.546834e-01
2.493792e-01
2.443110e-01
2.394683e-01
2.348413e-01
2.304208e-01
2.261983e-01
2.221660e-01
2.183165e-01
2.146431e-01
2.111393e-01
2.077994e-01
2.046179e-01
2.015897e-01
1.987102e-01
1.959751e-01
1.933803e-01
1.909223e-01
1.885977e-01
1.864033e-01
1.843365e-01
1.823945e-01
1.805752e-01
1.788764e-01
1.772964e-01
1.758334e-01
1.744860e-01
1.732531e-01
1.721335e-01
1.711266e-01
1.702316e-01
1.694480e-01
1.687757e-01
1.682146e-01
1.677646e-01
1.674262e-01
1.671997e-01
1.670858e-01
9.844346e-01
9.531225e-01
9.218132e-01
8.906870e-01
8.599130e-01
8.296451e-01
8.000188e-01
7.711489e-01
7.431288e-01
7.160309e-01
6.899078e-01
6.647934e-01
6.407060e-01