# vtk DataFile Version 3.0
9.SOU_1Pe = 10,Grid 41x41,007369.vtk
ASCII
DATASET STRUCTURED_GRID
DIMENSIONS 41 41 1
POINTS 1681 double
0.000000e+00 0.000000e+00 0.0
2.500000e-02 0.000000e+00 0.0
5.000000e-02 0.000000e+00 0.0
7.500000e-02 0.000000e+00 0.0
1.000000e-01 0.000000e+00 0.0
1.250000e-01 0.000000e+00 0.0
1.500000e-01 0.000000e+00 0.0
1.750000e-01 0.000000e+00 0.0
2.000000e-01 0.000000e+00 0.0
2.250000e-01 0.000000e+00 0.0
2.500000e-01 0.000000e+00 0.0
2.750000e-01 0.000000e+00 0.0
3.000000e-01 0.000000e+00 0.0
3.250000e-01 0.000000e+00 0.0
3.500000e-01 0.000000e+00 0.0
3.750000e-01 0.000000e+00 0.0
4.000000e-01 0.000000e+00 0.0
4.250000e-01 0.000000e+00 0.0
4.500000e-01 0.000000e+00 0.0
4.750000e-01 0.000000e+00 0.0
5.000000e-01 0.000000e+00 0.0
5.250000e-01 0.000000e+00 0.0
5.500000e-01 0.000000e+00 0.0
5.750000e-01 0.000000e+00 0.0
6.000000e-01 0.000000e+00 0.0
6.250000e-01 0.000000e+00 0.0
6.500000e-01 0.000000e+00 0.0
6.750000e-01 0.000000e+00 0.0
7.000000e-01 0.000000e+00 0.0
7.250000e-01 0.000000e+00 0.0
7.500000e-01 0.000000e+00 0.0
7.750000e-01 0.000000e+00 0.0
8.000000e-01 0.000000e+00 0.0
8.250000e-01 0.000000e+00 0.0
8.500000e-01 0.000000e+00 0.0
8.750000e-01 0.000000e+00 0.0
9.000000e-01 0.000000e+00 0.0
9.250000e-01 0.000000e+00 0.0
9.500000e-01 0.000000e+00 0.0
9.750000e-01 0.000000e+00 0.0
1.000000e+00 0.000000e+00 0.0
0.000000e+00 2.500000e-02 0.0
2.500000e-02 2.500000e-02 0.0
5.000000e-02 2.500000e-02 0.0
7.500000e-02 2.500000e-02 0.0
1.000000e-01 2.500000e-02 0.0
1.250000e-01 2.500000e-02 0.0
1.500000e-01 2.500000e-02 0.0
1.750000e-01 2.500000e-02 0.0
2.000000e-01 2.500000e-02 0.0
2.250000e-01 2.500000e-02 0.0
2.500000e-01 2.500000e-02 0.0
2.750000e-01 2.500000e-02 0.0
3.000000e-01 2.500000e-02 0.0
3.250000e-01 2.500000e-02 0.0
3.500000e-01 2.500000e-02 0.0
3.750000e-01 2.500000e-02 0.0
4.000000e-01 2.500000e-02 0.0
4.250000e-01 2.500000e-02 0.0
4.500000e-01 2.500000e-02 0.0
4.750000e-01 2.500000e-02 0.0
5.000000e-01 2.500000e-02 0.0
5.250000e-01 2.500000e-02 0.0
5.500000e-01 2.500000e-02 0.0
5.750000e-01 2.500000e-02 0.0
6.000000e-01 2.500000e-02 0.0
6.250000e-01 2.500000e-02 0.0
6.500000e-01 2.500000e-02 0.0
6.750000e-01 2.500000e-02 0.0
7.000000e-01 2.500000e-02 0.0
7.250000e-01 2.500000e-02 0.0
7.500000e-01 2.500000e-02 0.0
7.750000e-01 2.500000e-02 0.0
8.000000e-01 2.500000e-02 0.0
8.250000e-01 2.500000e-02 0.0
8.500000e-01 2.500000e-02 0.0
8.750000e-01 2.500000e-02 0.0
9.000000e-01 2.500000e-02 0.0
9.250000e-01 2.500000e-02 0.0
9.500000e-01 2.500000e-02 0.0
9.750000e-01 2.500000e-02 0.0
1.000000e+00 2.500000e-02 0.0
0.000000e+00 5.000000e-02 0.0
2.500000e-02 5.000000e-02 0.0
5.000000e-02 5.000000e-02 0.0
7.500000e-02 5.000000e-02 0.0
1.000000e-01 5.000000e-02 0.0
1.250000e-01 5.000000e-02 0.0
1.500000e-01 5.000000e-02 0.0
1.750000e-01 5.000000e-02 0.0
2.000000e-01 5.000000e-02 0.0
2.250000e-01 5.000000e-02 0.0
2.500000e-01 5.000000e-02 0.0
2.750000e-01 5.000000e-02 0.0
3.000000e-01 5.000000e-02 0.0
3.250000e-01 5.000000e-02 0.0
3.500000e-01 5.000000e-02 0.0
3.750000e-01 5.000000e-02 0.0
4.000000e-01 5.000000e-02 0.0
4.250000e-01 5.000000e-02 0.0
4.500000e-01 5.000000e-02 0.0
4.750000e-01 5.000000e-02 0.0
5.000000e-01 5.000000e-02 0.0
5.250000e-01 5.000000e-02 0.0
5.500000e-01 5.000000e-02 0.0
5.750000e-01 5.000000e-02 0.0
6.000000e-01 5.000000e-02 0.0
6.250000e-01 5.000000e-02 0.0
6.500000e-01 5.000000e-02 0.0
6.750000e-01 5.000000e-02 0.0
7.000000e-01 5.000000e-02 0.0
7.250000e-01 5.000000e-02 0.0
7.500000e-01 5.000000e-02 0.0
7.750000e-01 5.000000e-02 0.0
8.000000e-01 5.000000e-02 0.0
8.250000e-01 5.000000e-02 0.0
8.500000e-01 5.000000e-02 0.0
8.750000e-01 5.000000e-02 0.0
9.000000e-01 5.000000e-02 0.0
9.250000e-01 5.000000e-02 0.0
9.500000e-01 5.000000e-02 0.0
9.750000e-01 5.000000e-02 0.0
1.000000e+00 5.000000e-02 0.0
0.000000e+00 7.500000e-02 0.0
2.500000e-02 7.500000e-02 0.0
5.000000e-02 7.500000e-02 0.0
7.500000e-02 7.500000e-02 0.0
1.000000e-01 7.500000e-02 0.0
1.250000e-01 7.500000e-02 0.0
1.500000e-01 7.500000e-02 0.0
1.750000e-01 7.500000e-02 0.0
2.000000e-01 7.500000e-02 0.0
2.250000e-01 7.500000e-02 0.0
2.500000e-01 7.500000e-02 0.0
2.750000e-01 7.500000e-02 0.0
3.000000e-01 7.500000e-02 0.0
3.250000e-01 7.500000e-02 0.0
3.500000e-01 7.500000e-02 0.0
3.750000e-01 7.500000e-02 0.0
4.000000e-01 7.500000e-02 0.0
4.250000e-01 7.500000e-02 0.0
4.500000e-01 7.500000e-02 0.0
4.750000e-01 7.500000e-02 0.0
5.000000e-01 7.500000e-02 0.0
5.250000e-01 7.500000e-02 0.0
5.500000e-01 7.500000e-02 0.0
5.750000e-01 7.500000e-02 0.0
6.000000e-01 7.500000e-02 0.0
6.250000e-01 7.500000e-02 0.0
6.500000e-01 7.500000e-02 0.0
6.750000e-01 7.500000e-02 0.0
7.000000e-01 7.500000e-02 0.0
7.250000e-01 7.500000e-02 0.0
7.500000e-01 7.500000e-02 0.0
7.750000e-01 7.500000e-02 0.0
8.000000e-01 7.500000e-02 0.0
8.250000e-01 7.500000e-02 0.0
8.500000e-01 7.500000e-02 0.0
8.750000e-01 7.500000e-02 0.0
9.000000e-01 7.500000e-02 0.0
9.250000e-01 7.500000e-02 0.0
9.500000e-01 7.500000e-02 0.0
9.750000e-01 7.500000e-02 0.0
1.000000e+00 7.500000e-02 0.0
0.000000e+00 1.000000e-01 0.0
2.500000e-02 1.000000e-01 0.0
5.000000e-02 1.000000e-01 0.0
7.500000e-02 1.000000e-01 0.0
1.000000e-01 1.000000e-01 0.0
1.250000e-01 1.000000e-01 0.0
1.500000e-01 1.000000e-01 0.0
1.750000e-01 1.000000e-01 0.0
2.000000e-01 1.000000e-01 0.0
2.250000e-01 1.000000e-01 0.0
2.500000e-01 1.000000e-01 0.0
2.750000e-01 1.000000e-01 0.0
3.000000e-01 1.000000e-01 0.0
3.250000e-01 1.000000e-01 0.0
3.500000e-01 1.000000e-01 0.0
3.750000e-01 1.000000e-01 0.0
4.000000e-01 1.000000e-01 0.0
4.250000e-01 1.000000e-01 0.0
4.500000e-01 1.000000e-01 0.0
4.750000e-01 1.000000e-01 0.0
5.000000e-01 1.000000e-01 0.0
5.250000e-01 1.000000e-01 0.0
5.500000e-01 1.000000e-01 0.0
5.750000e-01 1.000000e-01 0.0
6.000000e-01 1.000000e-01 0.0
6.250000e-01 1.000000e-01 0.0
6.500000e-01 1.000000e-01 0.0
6.750000e-01 1.000000e-01 0.0
7.000000e-01 1.000000e-01 0.0
7.250000e-01 1.000000e-01 0.0
7.500000e-01 1.000000e-01 0.0
7.750000e-01 1.000000e-01 0.0
8.000000e-01 1.000000e-01 0.0
8.250000e-01 1.000000e-01 0.0
8.500000e-01 1.000000e-01 0.0
8.750000e-01 1.000000e-01 0.0
9.000000e-01 1.000000e-01 0.0
9.250000e-01 1.000000e-01 0.0
9.500000e-01 1.000000e-01 0.0
9.750000e-01 1.000000e-01 0.0
1.000000e+00 1.000000e-01 0.0
0.000000e+00 1.250000e-01 0.0
2.500000e-02 1.250000e-01 0.0
5.000000e-02 1.250000e-01 0.0
7.500000e-02 1.250000e-01 0.0
1.000000e-01 1.250000e-01 0.0
1.250000e-01 1.250000e-01 0.0
1.500000e-01 1.250000e-01 0.0
1.750000e-01 1.250000e-01 0.0
2.000000e-01 1.250000e-01 0.0
2.250000e-01 1.250000e-01 0.0
2.500000e-01 1.250000e-01 0.0
2.750000e-01 1.250000e-01 0.0
3.000000e-01 1.250000e-01 0.0
3.250000e-01 1.250000e-01 0.0
3.500000e-01 1.250000e-01 0.0
3.750000e-01 1.250000e-01 0.0
4.000000e-01 1.250000e-01 0.0
4.250000e-01 1.250000e-01 0.0
4.500000e-01 1.250000e-01 0.0
4.750000e-01 1.250000e-01 0.0
5.000000e-01 1.250000e-01 0.0
5.250000e-01 1.250000e-01 0.0
5.500000e-01 1.250000e-01 0.0
5.750000e-01 1.250000e-01 0.0
6.000000e-01 1.250000e-01 0.0
6.250000e-01 1.250000e-01 0.0
6.500000e-01 1.250000e-01 0.0
6.750000e-01 1.250000e-01 0.0
7.000000e-01 1.250000e-01 0.0
7.250000e-01 1.250000e-01 0.0
7.500000e-01 1.250000e-01 0.0
7.750000e-01 1.250000e-01 0.0
8.000000e-01 1.250000e-01 0.0
8.250000e-01 1.250000e-01 0.0
8.500000e-01 1.250000e-01 0.0
8.750000e-01 1.250000e-01 0.0
9.000000e-01 1.250000e-01 0.0
9.250000e-01 1.250000e-01 0.0
9.500000e-01 1.250000e-01 0.0
9.750000e-01 1.250000e-01 0.0
1.000000e+00 1.250000e-01 0.0
0.000000e+00 1.500000e-01 0.0
2.500000e-02 1.500000e-01 0.0
5.000000e-02 1.500000e-01 0.0
7.500000e-02 1.500000e-01 0.0
1.000000e-01 1.500000e-01 0.0
1.250000e-01 1.500000e-01 0.0
1.500000e-01 1.500000e-01 0.0
1.750000e-01 1.500000e-01 0.0
2.000000e-01 1.500000e-01 0.0
2.250000e-01 1.500000e-01 0.0
2.500000e-01 1.500000e-01 0.0
2.750000e-01 1.500000e-01 0.0
3.000000e-01 1.500000e-01 0.0
3.250000e-01 1.500000e-01 0.0
3.500000e-01 1.500000e-01 0.0
3.750000e-01 1.500000e-01 0.0
4.000000e-01 1.500000e-01 0.0
4.250000e-01 1.500000e-01 0.0
4.500000e-01 1.500000e-01 0.0
4.750000e-01 1.500000e-01 0.0
5.000000e-01 1.500000e-01 0.0
5.250000e-01 1.500000e-01 0.0
5.500000e-01 1.500000e-01 0.0
5.750000e-01 1.500000e-01 0.0
6.000000e-01 1.500000e-01 0.0
6.250000e-01 1.500000e-01 0.0
6.500000e-01 1.500000e-01 0.0
6.750000e-01 1.500000e-01 0.0
7.000000e-01 1.500000e-01 0.0
7.250000e-01 1.500000e-01 0.0
7.500000e-01 1.500000e-01 0.0
7.750000e-01 1.500000e-01 0.0
8.000000e-01 1.500000e-01 0.0
8.250000e-01 1.500000e-01 0.0
8.500000e-01 1.500000e-01 0.0
8.750000e-01 1.500000e-01 0.0
9.000000e-01 1.500000e-01 0.0
9.250000e-01 1.500000e-01 0.0
9.500000e-01 1.500000e-01 0.0
9.750000e-01 1.500000e-01 0.0
1.000000e+00 1.500000e-01 0.0
0.000000e+00 1.750000e-01 0.0
2.500000e-02 1.750000e-01 0.0
5.000000e-02 1.750000e-01 0.0
7.500000e-02 1.750000e-01 0.0
1.000000e-01 1.750000e-01 0.0
1.250000e-01 1.750000e-01 0.0
1.500000e-01 1.750000e-01 0.0
1.750000e-01 1.750000e-01 0.0
2.000000e-01 1.750000e-01 0.0
2.250000e-01 1.750000e-01 0.0
2.500000e-01 1.750000e-01 0.0
2.750000e-01 1.750000e-01 0.0
3.000000e-01 1.750000e-01 0.0
3.250000e-01 1.750000e-01 0.0
3.500000e-01 1.750000e-01 0.0
3.750000e-01 1.750000e-01 0.0
4.000000e-01 1.750000e-01 0.0
4.250000e-01 1.750000e-01 0.0
4.500000e-01 1.750000e-01 0.0
4.750000e-01 1.750000e-01 0.0
5.000000e-01 1.750000e-01 0.0
5.250000e-01 1.750000e-01 0.0
5.500000e-01 1.750000e-01 0.0
5.750000e-01 1.750000e-01 0.0
6.000000e-01 1.750000e-01 0.0
6.250000e-01 1.750000e-01 0.0
6.500000e-01 1.750000e-01 0.0
6.750000e-01 1.750000e-01 0.0
7.000000e-01 1.750000e-01 0.0
7.250000e-01 1.750000e-01 0.0
7.500000e-01 1.750000e-01 0.0
7.750000e-01 1.750000e-01 0.0
8.000000e-01 1.750000e-01 0.0
8.250000e-01 1.750000e-01 0.0
8.500000e-01 1.750000e-01 0.0
8.750000e-01 1.750000e-01 0.0
9.000000e-01 1.750000e-01 0.0
9.250000e-01 1.750000e-01 0.0
9.500000e-01 1.750000e-01 0.0
9.750000e-01 1.750000e-01 0.0
1.000000e+00 1.750000e-01 0.0
[...]
CELL_DATA 1600
SCALARS Temperature double 1
LOOKUP_TABLE default
5.000000e-01
2.393777e-01
1.240250e-01
7.934456e-02
5.758544e-02
4.461109e-02
3.590934e-02
2.965983e-02
2.496462e-02
2.132008e-02
1.841941e-02
1.606446e-02
1.412135e-02
1.249636e-02
1.112190e-02
9.948024e-03
8.937014e-03
8.059889e-03
7.294022e-03
6.621500e-03
6.027969e-03
5.501811e-03
5.033526e-03
4.615292e-03
4.240619e-03
3.904099e-03
3.601206e-03
3.328152e-03
3.081766e-03
2.859414e-03
2.658933e-03
2.478593e-03
2.317067e-03
2.173430e-03
2.047166e-03
1.938201e-03
1.846960e-03
1.774441e-03
1.722338e-03
1.693195e-03
7.606223e-01
5.000000e-01
3.377009e-01
2.415130e-01
1.825105e-01
1.438160e-01
1.168111e-01
9.702350e-02
8.197690e-02
7.020275e-02
6.077776e-02
5.309310e-02
4.673148e-02
4.139753e-02
3.687649e-02
3.300858e-02
2.967254e-02
2.677479e-02
2.424200e-02
2.201592e-02
2.004981e-02
1.830568e-02
1.675248e-02
1.536455e-02
1.412061e-02
1.300286e-02
1.199643e-02
1.108884e-02
1.026964e-02
9.530142e-03
8.863227e-03
8.263179e-03
7.725629e-03
7.247529e-03
6.827195e-03
6.464406e-03
6.160592e-03
5.919102e-03
5.745588e-03
5.648530e-03
8.759750e-01
6.622991e-01
5.000000e-01
3.843109e-01
3.029303e-01
2.447053e-01
2.018592e-01
1.694055e-01
1.441804e-01
1.241372e-01
1.079131e-01
9.457295e-02
8.345704e-02
7.408823e-02
6.611372e-02
5.926749e-02
5.334553e-02
4.818896e-02
4.367236e-02
3.969553e-02
3.617755e-02
3.305249e-02
3.026612e-02
2.777355e-02
2.553740e-02
2.352638e-02
2.171425e-02
2.007894e-02
1.860198e-02
1.726798e-02
1.606430e-02
1.498082e-02
1.400980e-02
1.314586e-02
1.238608e-02
1.173015e-02
1.118073e-02
1.074395e-02
1.043007e-02
1.025449e-02
9.206554e-01
7.584870e-01
6.156891e-01
5.000000e-01
4.097297e-01
3.399536e-01
2.857010e-01
2.429793e-01
2.088366e-01
1.811484e-01
1.583887e-01
1.394513e-01
1.235230e-01
1.099968e-01
9.841246e-02
8.841627e-02
7.973245e-02
7.214337e-02
6.547534e-02
5.958829e-02
5.436821e-02
4.972152e-02
4.557084e-02
4.185179e-02
3.851048e-02
3.550168e-02
3.278726e-02
3.033516e-02
2.811840e-02
2.611450e-02
2.430499e-02
2.267507e-02
2.121345e-02
1.991233e-02
1.876754e-02
1.777884e-02
1.695042e-02
1.629166e-02
1.581819e-02
1.555330e-02
9.424146e-01
8.174895e-01
6.970697e-01
5.902703e-01
5.000000e-01
4.254939e-01
3.645081e-01
3.145528e-01
2.734075e-01
2.392570e-01
2.106723e-01
1.865446e-01
1.660152e-01
1.484168e-01
1.332272e-01
1.200342e-01
1.085100e-01
9.839102e-02
8.946396e-02
8.155461e-02
7.451965e-02
6.824038e-02
6.261787e-02
5.756923e-02
5.302469e-02
4.892535e-02
4.522139e-02
4.187070e-02
3.883781e-02
3.609306e-02
3.361206e-02
3.137526e-02
2.936781e-02
2.757953e-02
2.600516e-02
2.464473e-02
2.350436e-02
2.259724e-02
2.194509e-02
2.158019e-02
9.553889e-01
8.561840e-01
7.552947e-01
6.600464e-01
5.745061e-01
5.000000e-01
4.361849e-01
3.819361e-01
3.358959e-01
2.967502e-01
2.633403e-01
2.346891e-01
2.099914e-01
1.885899e-01
1.699497e-01
1.536353e-01
1.392910e-01
1.266248e-01
1.153960e-01
1.054047e-01
9.648469e-02
8.849646e-02
8.132267e-02
7.486417e-02
6.903687e-02
6.376933e-02
5.900078e-02
5.467965e-02
5.076230e-02
4.721218e-02
4.399917e-02
4.109916e-02
3.849392e-02
3.617108e-02
3.412453e-02
3.235495e-02
3.087082e-02
2.968975e-02
2.884041e-02
2.836507e-02
9.640907e-01
8.831889e-01
7.981408e-01
7.142990e-01
6.354919e-01
5.638151e-01
5.000000e-01
4.439078e-01
3.949387e-01
3.523062e-01
3.151947e-01
2.828397e-01
2.545601e-01
2.297662e-01
2.079556e-01
1.887031e-01
1.716508e-01
1.564972e-01
1.429883e-01
1.309094e-01
1.200790e-01
1.103427e-01
1.015691e-01
9.364620e-02
8.647794e-02
7.998221e-02
7.408869e-02
6.873736e-02
6.387724e-02
5.946548e-02
5.546674e-02
5.185277e-02
4.860230e-02
4.570117e-02
4.314281e-02
4.092900e-02
3.907112e-02
3.759190e-02
3.652775e-02
3.593206e-02
9.703402e-01
9.029765e-01
8.305945e-01
7.570207e-01
6.854472e-01
6.180639e-01
5.560922e-01
5.000000e-01
4.497510e-01
4.050145e-01
3.653150e-01
3.301280e-01
2.989350e-01
2.712522e-01
2.466433e-01
2.247223e-01
2.051520e-01
1.876396e-01
1.719323e-01
1.578117e-01
1.450898e-01
1.336041e-01
1.232145e-01
1.137998e-01
1.052555e-01
9.749108e-02
9.042866e-02
8.400125e-02
7.815171e-02
7.283185e-02
6.800187e-02
6.363003e-02
5.969261e-02
5.617418e-02
5.306825e-02
5.037826e-02
4.811913e-02
4.631941e-02
4.502416e-02
4.429892e-02
9.750354e-01
9.180231e-01
8.558196e-01
7.911634e-01
7.265925e-01
6.641041e-01
6.050613e-01
5.502490e-01
5.000000e-01
4.543305e-01
4.130570e-01
3.758843e-01
3.424658e-01
3.124421e-01
2.854640e-01
2.612048e-01
2.393664e-01
2.196805e-01
2.019084e-01
1.858388e-01
1.712856e-01
1.580855e-01
1.460951e-01
1.351889e-01
1.252571e-01
1.162040e-01
1.079464e-01
1.004121e-01
9.353939e-02
8.727597e-02
8.157862e-02
7.641295e-02
7.175357e-02
6.758448e-02
6.389993e-02
6.070567e-02
5.802087e-02
5.588067e-02
5.433967e-02
5.347657e-02
9.786799e-01
9.297972e-01
8.758628e-01
8.188516e-01
7.607430e-01
7.032498e-01
6.476938e-01
5.949855e-01
5.456695e-01
5.000000e-01
4.580200e-01
4.196309e-01
3.846467e-01
3.528342e-01
3.239400e-01
2.977086e-01
2.738931e-01
2.522614e-01
2.325997e-01
2.147130e-01
1.984254e-01
1.835790e-01
1.700328e-01
1.576617e-01
1.463545e-01
1.360133e-01
1.265521e-01
1.178959e-01
1.099799e-01
1.027493e-01
9.615866e-02
9.017201e-02
8.476321e-02
7.991652e-02
7.562768e-02
7.190554e-02
6.877427e-02
6.627642e-02
6.447699e-02
6.346883e-02
9.815806e-01
9.392222e-01
8.920869e-01
8.416113e-01
7.893277e-01
7.366597e-01
6.848053e-01
6.346850e-01
5.869430e-01
5.419800e-01
5.000000e-01
4.610593e-01
4.251097e-01
3.920344e-01
3.616747e-01
3.338497e-01
3.083705e-01
2.850488e-01
2.637032e-01
2.441623e-01
2.262671e-01
2.098711e-01
1.948409e-01
1.810559e-01
1.684075e-01
1.567987e-01
1.461433e-01
1.363658e-01
1.274005e-01
1.191914e-01
1.116923e-01
1.048669e-01
9.868933e-02
9.314507e-02
8.823226e-02
8.396364e-02
8.036918e-02
7.749967e-02
7.543135e-02
7.427214e-02
9.839355e-01
9.469069e-01
9.054271e-01
8.605487e-01
8.134554e-01
7.653109e-01
7.171603e-01
6.698720e-01
6.241157e-01
5.803691e-01
5.389407e-01
5.000000e-01
4.636090e-01
4.297506e-01
3.983527e-01
3.693071e-01
3.424840e-01
3.177423e-01
2.949378e-01
2.739280e-01
2.545754e-01
2.367499e-01
2.203300e-01
2.052037e-01
1.912683e-01
1.784308e-01
1.666078e-01
1.557250e-01
1.457179e-01
1.365313e-01
1.281195e-01
1.204473e-01
1.134902e-01
1.072358e-01
1.016857e-01
9.685736e-02
9.278742e-02
8.953568e-02
8.719048e-02
8.587561e-02
9.858787e-01
9.532685e-01
9.165430e-01
8.764770e-01
8.339848e-01
7.900086e-01
7.454399e-01
7.010650e-01
6.575342e-01
6.153533e-01
5.748903e-01
5.363910e-01
5.000000e-01
4.657809e-01
4.337360e-01
4.038231e-01
3.759689e-01
3.500800e-01
3.260510e-01
3.037709e-01
2.831274e-01
2.640102e-01
2.463133e-01
2.299364e-01
2.147858e-01
2.007752e-01
1.878263e-01
1.758687e-01
1.648407e-01
1.546895e-01
1.453717e-01
1.368543e-01
1.291153e-01
1.221459e-01
1.159518e-01
1.105561e-01
1.060030e-01
1.023622e-01
9.973471e-02
9.826101e-02
9.875036e-01
9.586025e-01
9.259118e-01
8.900032e-01
8.515832e-01
8.114101e-01
7.702338e-01
7.287478e-01
6.875579e-01
6.471658e-01
6.079656e-01
5.702494e-01
5.342191e-01
5.000000e-01
4.676552e-01
4.371993e-01
4.086105e-01
3.818401e-01
3.568213e-01
3.334755e-01
3.117173e-01
2.914584e-01
2.726107e-01
2.550882e-01
2.388086e-01
2.236949e-01
2.096758e-01
1.966868e-01
1.846710e-01
1.735796e-01
1.633728e-01
1.540212e-01
1.455068e-01
1.378249e-01
1.309867e-01
1.250218e-01
1.199827e-01
1.159496e-01
1.130372e-01
1.114030e-01
9.888781e-01
9.631235e-01
9.338863e-01
9.015875e-01
8.667728e-01
8.300503e-01
7.920444e-01
7.533567e-01
7.145360e-01
6.760600e-01
6.383253e-01
6.016473e-01
5.662640e-01
5.323448e-01
5.000000e-01
4.692911e-01
4.402405e-01
4.128402e-01
3.870598e-01
3.628522e-01
3.401592e-01
3.189155e-01
2.990523e-01
2.804998e-01
2.631890e-01
2.470538e-01
2.320319e-01
2.180665e-01
2.051069e-01
1.931099e-01
1.820409e-01
1.718752e-01
1.625999e-01
1.542156e-01
1.467397e-01
1.402094e-01
1.346862e-01
1.302615e-01
1.270642e-01
1.252694e-01
9.900520e-01
9.669914e-01
9.407325e-01
9.115837e-01
8.799658e-01
8.463647e-01
8.112969e-01
7.752777e-01
7.387952e-01
7.022914e-01
6.661503e-01
6.306929e-01
5.961769e-01
5.628007e-01
5.307089e-01
5.000000e-01
4.707331e-01
4.429357e-01
4.166099e-01
3.917382e-01
3.682887e-01
3.462193e-01
3.254811e-01
3.060211e-01
2.877850e-01
2.707189e-01
2.547712e-01
2.398940e-01
2.260443e-01
2.131858e-01
2.012901e-01
1.903387e-01
1.803245e-01
1.712549e-01
1.631541e-01
1.560677e-01
1.500669e-01
1.452551e-01
1.417756e-01
1.398216e-01
9.910630e-01
9.703275e-01
9.466545e-01
9.202676e-01
8.914900e-01
8.607090e-01
8.283492e-01
7.948480e-01
7.606336e-01
7.261069e-01
6.916295e-01
6.575160e-01
6.240311e-01
5.913895e-01
5.597595e-01
5.292669e-01
5.000000e-01
4.720158e-01
4.453449e-01
4.199966e-01
3.959636e-01
3.732258e-01
3.517540e-01
3.315126e-01
3.124624e-01
2.945628e-01
2.777735e-01
2.620568e-01
2.473785e-01
2.337104e-01
2.210315e-01
2.093301e-01
1.986064e-01
1.888749e-01
1.801680e-01
1.725400e-01
1.660727e-01
1.608818e-01
1.571254e-01
1.550150e-01
9.919401e-01
9.732252e-01
9.518110e-01
9.278566e-01
9.016090e-01
8.733752e-01
8.435028e-01
8.123604e-01
7.803195e-01
7.477386e-01
7.149512e-01
6.822577e-01
6.499200e-01
6.181599e-01
5.871597e-01
5.570643e-01
5.279842e-01
5.000000e-01
4.731663e-01
4.475158e-01
4.230632e-01
3.998092e-01
3.777433e-01
3.568471e-01
3.370965e-01
3.184645e-01
3.009230e-01
2.844450e-01
2.690061e-01
2.545869e-01
2.411746e-01
2.287657e-01
2.173679e-01
2.070040e-01
1.977149e-01
1.895647e-01
1.826460e-01
1.770873e-01
1.730620e-01
1.707994e-01
9.927060e-01
9.757580e-01
9.563276e-01
9.345247e-01
9.105360e-01
8.846040e-01
8.570117e-01
8.280677e-01
7.980916e-01
7.674003e-01
7.362968e-01
7.050622e-01
6.739490e-01
6.431787e-01
6.129402e-01
5.833901e-01
5.546551e-01
5.268337e-01
5.000000e-01
4.742064e-01
4.494872e-01
4.258616e-01
4.033366e-01
3.819100e-01
3.615727e-01
3.423113e-01
3.241099e-01
3.069528e-01
2.908259e-01
2.757192e-01
2.616289e-01
2.485600e-01
2.365290e-01
2.255672e-01
2.157249e-01
2.070762e-01
1.997251e-01
1.938131e-01
1.895288e-01
1.871195e-01
9.933785e-01
9.779841e-01
9.603045e-01
9.404117e-01
9.184454e-01
8.945953e-01
8.690906e-01
8.421883e-01
8.141612e-01
7.852870e-01
7.558377e-01
7.260720e-01
6.962291e-01
6.665245e-01
6.371478e-01
6.082618e-01
5.800034e-01
5.524842e-01
5.257936e-01
5.000000e-01
4.751543e-01
4.512920e-01
4.284361e-01
4.065994e-01
3.857870e-01
3.659987e-01
3.472309e-01
3.294791e-01
3.127399e-01
2.970130e-01
2.823042e-01
2.686275e-01
2.560084e-01
2.444876e-01
2.341250e-01
2.250053e-01
2.172441e-01
2.109960e-01
2.064648e-01
2.039156e-01
9.939720e-01
9.799502e-01
9.638224e-01
9.456318e-01
9.254804e-01
9.035153e-01
8.799210e-01
8.549102e-01
8.287144e-01
8.015746e-01
7.737329e-01
7.454246e-01
7.168726e-01
6.882827e-01
6.598408e-01
6.317113e-01
6.040364e-01
5.769368e-01
5.505128e-01
5.248457e-01
5.000000e-01
4.760252e-01
4.529584e-01
4.308259e-01
4.096461e-01
3.894314e-01
3.701899e-01
3.519284e-01
3.346540e-01
3.183766e-01
3.031115e-01
2.888823e-01
2.757239e-01
2.636865e-01
2.528401e-01
2.432800e-01
2.351338e-01
2.285692e-01
2.238050e-01
2.211235e-01
9.944982e-01
9.816943e-01
9.669475e-01
9.502785e-01
9.317596e-01
9.115035e-01
8.896573e-01
8.663959e-01
8.419145e-01
8.164210e-01
7.901289e-01
7.632501e-01
7.359898e-01
7.085416e-01
6.810845e-01
6.537807e-01
6.267742e-01
6.001908e-01
5.741384e-01
5.487080e-01
5.239748e-01
5.000000e-01
4.768327e-01
4.545115e-01
4.330667e-01
4.125223e-01
3.928978e-01
3.742107e-01
3.564785e-01
3.397213e-01
3.239639e-01
3.092397e-01
2.955931e-01
2.830840e-01
2.717929e-01
2.618257e-01
2.533220e-01
2.464625e-01
2.414806e-01
2.386752e-01
9.949665e-01
9.832475e-01
9.697339e-01
9.544292e-01
9.373821e-01
9.186773e-01
8.984309e-01
8.767855e-01
8.539049e-01
8.299671e-01
8.051591e-01
7.796699e-01
7.536867e-01
7.273893e-01
7.009477e-01
6.745189e-01
6.482460e-01
6.222567e-01
5.966634e-01
5.715639e-01
5.470416e-01
5.231673e-01
5.000000e-01
4.775889e-01
4.559750e-01
4.351928e-01
4.152725e-01
3.962417e-01
3.781281e-01
3.609614e-01
3.447764e-01
3.296156e-01
3.155334e-01
3.025996e-01
2.909046e-01
2.805656e-01
2.717335e-01
2.646022e-01
2.594192e-01
2.564992e-01
9.953847e-01
9.846354e-01
9.722265e-01
9.581482e-01
9.424308e-01
9.251358e-01
9.063538e-01
8.862002e-01
8.648111e-01
8.423383e-01
8.189441e-01
7.947963e-01
7.700636e-01
7.449118e-01
7.195002e-01
6.939789e-01
6.684874e-01
6.431529e-01
6.180900e-01
5.934006e-01
5.691741e-01
5.454885e-01
5.224111e-01
5.000000e-01
4.783055e-01
4.573716e-01
4.372382e-01
4.179424e-01
3.995215e-01
3.820145e-01
3.654657e-01
3.499271e-01
3.354626e-01
3.221517e-01
3.100951e-01
2.994206e-01
2.902908e-01
2.829118e-01
2.775450e-01
2.745201e-01
9.957594e-01
9.858794e-01
9.744626e-01
9.614895e-01
9.469753e-01
9.309631e-01
9.135221e-01
8.947445e-01
8.747429e-01
8.536455e-01
8.315925e-01
8.087316e-01
7.852142e-01
7.611914e-01
7.368110e-01
7.122150e-01
6.875376e-01
6.629035e-01
6.384273e-01
6.142129e-01
5.903538e-01
5.669333e-01
5.440250e-01
5.216945e-01
5.000000e-01
4.789939e-01
4.587247e-01
4.392383e-01
4.205809e-01
4.028006e-01
3.859505e-01
3.700920e-01
3.552981e-01
3.416580e-01
3.292824e-01
3.183095e-01
3.089131e-01
3.013114e-01
2.957786e-01
2.926589e-01
9.960959e-01
9.869971e-01
9.764736e-01
9.644983e-01
9.510747e-01
9.362307e-01
9.200178e-01
9.025089e-01
8.837960e-01
8.639867e-01
8.432013e-01
8.215691e-01
7.992248e-01
7.763051e-01
7.529462e-01
7.292811e-01
7.054372e-01
6.815355e-01
6.576887e-01
6.340013e-01
6.105686e-01
5.874777e-01
5.648072e-01
5.426284e-01
5.210061e-01
5.000000e-01
4.796661e-01
4.600586e-01
4.412316e-01
4.232416e-01
4.061505e-01
3.900282e-01
3.749568e-01
3.610348e-01
3.483825e-01
3.371483e-01
3.275167e-01
3.197174e-01
3.140369e-01
3.108325e-01
9.963988e-01
9.880036e-01
9.782858e-01
9.672127e-01
9.547786e-01
9.409992e-01
9.259113e-01
9.095713e-01
8.920536e-01
8.734479e-01
8.538567e-01
8.333922e-01
8.121737e-01
7.903242e-01
7.679681e-01
7.452288e-01
7.222265e-01
6.990769e-01
6.758901e-01
6.527690e-01
6.298101e-01
6.071022e-01
5.847275e-01
5.627618e-01
5.412753e-01
5.203338e-01
5.000000e-01
4.803350e-01
4.614004e-01
4.432607e-01
4.259855e-01
4.096532e-01
3.943544e-01
3.801964e-01
3.673088e-01
3.558498e-01
3.460140e-01
3.380420e-01
3.322319e-01
3.289530e-01
9.966718e-01
9.889112e-01
9.799211e-01
9.696648e-01
9.581293e-01
9.453203e-01
9.312626e-01
9.159987e-01
8.995879e-01
8.821041e-01
8.636342e-01
8.442750e-01
8.241313e-01
8.033132e-01
7.819335e-01
7.601060e-01
7.379432e-01
7.155550e-01
6.930472e-01
6.705209e-01
6.480716e-01
6.257893e-01
6.037583e-01
5.820576e-01
5.607617e-01
5.399414e-01
5.196650e-01
5.000000e-01
4.810146e-01
4.627804e-01
4.453744e-01
4.288826e-01
4.134038e-01
3.990538e-01
3.859709e-01
3.743225e-01
3.643128e-01
3.561926e-01
3.502705e-01
3.469271e-01
9.969182e-01
9.897304e-01
9.813980e-01
9.718816e-01
9.611622e-01
9.492377e-01
9.361228e-01
9.218483e-01
9.064606e-01
8.900201e-01
8.725995e-01
8.542821e-01
8.351593e-01
8.153290e-01
7.948931e-01
7.739557e-01
7.526215e-01
7.309939e-01
7.091741e-01
6.872601e-01
6.653460e-01
6.435215e-01
6.218719e-01
6.004785e-01
5.794191e-01
5.587684e-01
5.385995e-01
5.189853e-01
5.000000e-01
4.817213e-01
4.642332e-01
4.476289e-01
4.320145e-01
4.175139e-01
4.042734e-01
3.924693e-01
3.823147e-01
3.740698e-01
3.680529e-01
3.646546e-01
9.971406e-01
9.904699e-01
9.827320e-01
9.738855e-01
9.639069e-01
9.527878e-01
9.405345e-01
9.271681e-01
9.127240e-01
8.972507e-01
8.808086e-01
8.634687e-01
8.453105e-01
8.264204e-01
8.068901e-01
7.868142e-01
7.662896e-01
7.454131e-01
7.242808e-01
7.029870e-01
6.816234e-01
6.602787e-01
6.390386e-01
6.179855e-01
5.971994e-01
5.767583e-01
5.567393e-01
5.372196e-01
5.182787e-01
5.000000e-01
4.824736e-01
4.657992e-01
4.500900e-01
4.354769e-01
4.221142e-01
4.101860e-01
3.999138e-01
3.915664e-01
3.854710e-01
3.820270e-01
9.973411e-01
9.911368e-01
9.839357e-01
9.756950e-01
9.663879e-01
9.560008e-01
9.445333e-01
9.319981e-01
9.184214e-01
9.038413e-01
8.883077e-01
8.718805e-01
8.546283e-01
8.366272e-01
8.179591e-01
7.987099e-01
7.789685e-01
7.588253e-01
7.383711e-01
7.176958e-01
6.968885e-01
6.760360e-01
6.552236e-01
6.345343e-01
6.140494e-01
5.938494e-01
5.740144e-01
5.546256e-01
5.357668e-01
5.175264e-01
5.000000e-01
4.832932e-01
4.675255e-01
4.528347e-01
4.393819e-01
4.273586e-01
4.169940e-01
4.085648e-01
4.024060e-01
3.989249e-01
9.975214e-01
9.917368e-01
9.850192e-01
9.773249e-01
9.686247e-01
9.589008e-01
9.481472e-01
9.363700e-01
9.235870e-01
9.098280e-01
8.951331e-01
8.795527e-01
8.631457e-01
8.459788e-01
8.281247e-01
8.096613e-01
7.906699e-01
7.712343e-01
7.514400e-01
7.313725e-01
7.111177e-01
6.907603e-01
6.703844e-01
6.500728e-01
6.299080e-01
6.099717e-01
5.903468e-01
5.711174e-01
5.523711e-01
5.342008e-01
5.167067e-01
5.000000e-01
4.842056e-01
4.694675e-01
4.559533e-01
4.438610e-01
4.334269e-01
4.249346e-01
4.187262e-01
4.152159e-01
9.976829e-01
9.922744e-01
9.859902e-01
9.787865e-01
9.706322e-01
9.615061e-01
9.513977e-01
9.403074e-01
9.282464e-01
9.152368e-01
9.013107e-01
8.865098e-01
8.708846e-01
8.544932e-01
8.374001e-01
8.196755e-01
8.013936e-01
7.826321e-01
7.634710e-01
7.439916e-01
7.242761e-01
7.044069e-01
6.844666e-01
6.645374e-01
6.447019e-01
6.250431e-01
6.056456e-01
5.865961e-01
5.679854e-01
5.499100e-01
5.324744e-01
5.157943e-01
5.000000e-01
4.852406e-01
4.716897e-01
4.595513e-01
4.490679e-01
4.405292e-01
4.342835e-01
4.307509e-01
9.978266e-01
9.927525e-01
9.868541e-01
9.800877e-01
9.724205e-01
9.638289e-01
9.542988e-01
9.438258e-01
9.324155e-01
9.200835e-01
9.068549e-01
8.927642e-01
8.778541e-01
8.621751e-01
8.457844e-01
8.287451e-01
8.111251e-01
7.929960e-01
7.744328e-01
7.555124e-01
7.363135e-01
7.169159e-01
6.974004e-01
6.778483e-01
6.583420e-01
6.389652e-01
6.198036e-01
6.009462e-01
5.824861e-01
5.645231e-01
5.471653e-01
5.305325e-01
5.147593e-01
5.000000e-01
4.864329e-01
4.742677e-01
4.637520e-01
4.551813e-01
4.489091e-01
4.453604e-01
9.979528e-01
9.931728e-01
9.876139e-01
9.812325e-01
9.739948e-01
9.658755e-01
9.568572e-01
9.469317e-01
9.361001e-01
9.243723e-01
9.117677e-01
8.983143e-01
8.840482e-01
8.690133e-01
8.532603e-01
8.368459e-01
8.198320e-01
8.022851e-01
7.842751e-01
7.658749e-01
7.471599e-01
7.282071e-01
7.090954e-01
6.899049e-01
6.707176e-01
6.516175e-01
6.326912e-01
6.140291e-01
5.957265e-01
5.778857e-01
5.606181e-01
5.440467e-01
5.283103e-01
5.135670e-01
5.000000e-01
4.878233e-01
4.772894e-01
4.686985e-01
4.624087e-01
4.588491e-01
9.980618e-01
9.935356e-01
9.882698e-01
9.822212e-01
9.753553e-01
9.676450e-01
9.590710e-01
9.496217e-01
9.392943e-01
9.280945e-01
9.160364e-01
9.031426e-01
8.894439e-01
8.749782e-01
8.597906e-01
8.439323e-01
8.274600e-01
8.104353e-01
7.929238e-01
7.749947e-01
7.567199e-01
7.381742e-01
7.194344e-01
7.005793e-01
6.816905e-01
6.628517e-01
6.441502e-01
6.256775e-01
6.075307e-01
5.898140e-01
5.726414e-01
5.561389e-01
5.404486e-01
5.257322e-01
5.121767e-01
5.000000e-01
4.894587e-01
4.808570e-01
4.745567e-01
4.709901e-01
9.981530e-01
9.938394e-01
9.888193e-01
9.830496e-01
9.764956e-01
9.691292e-01
9.609289e-01
9.518809e-01
9.419791e-01
9.312257e-01
9.196308e-01
9.072126e-01
8.939970e-01
8.800173e-01
8.653138e-01
8.499331e-01
8.339273e-01
8.173540e-01
8.002749e-01
7.827559e-01
7.648662e-01
7.466780e-01
7.282664e-01
7.097092e-01
6.910869e-01
6.724833e-01
6.539859e-01
6.356872e-01
6.176852e-01
6.000862e-01
5.830059e-01
5.665730e-01
5.509321e-01
5.362479e-01
5.227105e-01
5.105412e-01
5.000000e-01
4.913941e-01
4.850884e-01
4.815181e-01
9.982256e-01
9.940809e-01
9.892561e-01
9.837083e-01
9.774028e-01
9.703102e-01
9.624081e-01
9.536806e-01
9.441193e-01
9.337236e-01
9.225003e-01
9.104643e-01
8.976378e-01
8.840504e-01
8.697385e-01
8.547448e-01
8.391182e-01
8.229127e-01
8.061869e-01
7.890040e-01
7.714308e-01
7.535375e-01
7.353978e-01
7.170882e-01
6.986886e-01
6.802826e-01
6.619579e-01
6.438073e-01
6.259301e-01
6.084336e-01
5.914352e-01
5.750653e-01
5.594708e-01
5.448186e-01
5.313014e-01
5.191430e-01
5.086059e-01
5.000000e-01
4.936925e-01
4.901205e-01
9.982777e-01
9.942544e-01
9.895699e-01
9.841818e-01
9.780549e-01
9.711596e-01
9.634722e-01
9.549758e-01
9.456603e-01
9.355230e-01
9.245686e-01
9.128095e-01
9.002653e-01