# vtk DataFile Version 3.0
9.SOU_1Pe = 10,Grid 81x81,014911.vtk
ASCII
DATASET STRUCTURED_GRID
DIMENSIONS 81 81 1
POINTS 6561 double
0.000000e+00 0.000000e+00 0.0
1.250000e-02 0.000000e+00 0.0
2.500000e-02 0.000000e+00 0.0
3.750000e-02 0.000000e+00 0.0
5.000000e-02 0.000000e+00 0.0
6.250000e-02 0.000000e+00 0.0
7.500000e-02 0.000000e+00 0.0
8.750000e-02 0.000000e+00 0.0
1.000000e-01 0.000000e+00 0.0
1.125000e-01 0.000000e+00 0.0
1.250000e-01 0.000000e+00 0.0
1.375000e-01 0.000000e+00 0.0
1.500000e-01 0.000000e+00 0.0
1.625000e-01 0.000000e+00 0.0
1.750000e-01 0.000000e+00 0.0
1.875000e-01 0.000000e+00 0.0
2.000000e-01 0.000000e+00 0.0
2.125000e-01 0.000000e+00 0.0
2.250000e-01 0.000000e+00 0.0
2.375000e-01 0.000000e+00 0.0
2.500000e-01 0.000000e+00 0.0
2.625000e-01 0.000000e+00 0.0
2.750000e-01 0.000000e+00 0.0
2.875000e-01 0.000000e+00 0.0
3.000000e-01 0.000000e+00 0.0
3.125000e-01 0.000000e+00 0.0
3.250000e-01 0.000000e+00 0.0
3.375000e-01 0.000000e+00 0.0
3.500000e-01 0.000000e+00 0.0
3.625000e-01 0.000000e+00 0.0
3.750000e-01 0.000000e+00 0.0
3.875000e-01 0.000000e+00 0.0
4.000000e-01 0.000000e+00 0.0
4.125000e-01 0.000000e+00 0.0
4.250000e-01 0.000000e+00 0.0
4.375000e-01 0.000000e+00 0.0
4.500000e-01 0.000000e+00 0.0
4.625000e-01 0.000000e+00 0.0
4.750000e-01 0.000000e+00 0.0
4.875000e-01 0.000000e+00 0.0
5.000000e-01 0.000000e+00 0.0
5.125000e-01 0.000000e+00 0.0
5.250000e-01 0.000000e+00 0.0
5.375000e-01 0.000000e+00 0.0
5.500000e-01 0.000000e+00 0.0
5.625000e-01 0.000000e+00 0.0
5.750000e-01 0.000000e+00 0.0
5.875000e-01 0.000000e+00 0.0
6.000000e-01 0.000000e+00 0.0
6.125000e-01 0.000000e+00 0.0
6.250000e-01 0.000000e+00 0.0
6.375000e-01 0.000000e+00 0.0
6.500000e-01 0.000000e+00 0.0
6.625000e-01 0.000000e+00 0.0
6.750000e-01 0.000000e+00 0.0
6.875000e-01 0.000000e+00 0.0
7.000000e-01 0.000000e+00 0.0
7.125000e-01 0.000000e+00 0.0
7.250000e-01 0.000000e+00 0.0
7.375000e-01 0.000000e+00 0.0
7.500000e-01 0.000000e+00 0.0
7.625000e-01 0.000000e+00 0.0
7.750000e-01 0.000000e+00 0.0
7.875000e-01 0.000000e+00 0.0
8.000000e-01 0.000000e+00 0.0
8.125000e-01 0.000000e+00 0.0
8.250000e-01 0.000000e+00 0.0
8.375000e-01 0.000000e+00 0.0
8.500000e-01 0.000000e+00 0.0
8.625000e-01 0.000000e+00 0.0
8.750000e-01 0.000000e+00 0.0
8.875000e-01 0.000000e+00 0.0
9.000000e-01 0.000000e+00 0.0
9.125000e-01 0.000000e+00 0.0
9.250000e-01 0.000000e+00 0.0
9.375000e-01 0.000000e+00 0.0
9.500000e-01 0.000000e+00 0.0
9.625000e-01 0.000000e+00 0.0
9.750000e-01 0.000000e+00 0.0
9.875000e-01 0.000000e+00 0.0
1.000000e+00 0.000000e+00 0.0
0.000000e+00 1.250000e-02 0.0
1.250000e-02 1.250000e-02 0.0
2.500000e-02 1.250000e-02 0.0
3.750000e-02 1.250000e-02 0.0
5.000000e-02 1.250000e-02 0.0
6.250000e-02 1.250000e-02 0.0
7.500000e-02 1.250000e-02 0.0
8.750000e-02 1.250000e-02 0.0
1.000000e-01 1.250000e-02 0.0
1.125000e-01 1.250000e-02 0.0
1.250000e-01 1.250000e-02 0.0
1.375000e-01 1.250000e-02 0.0
1.500000e-01 1.250000e-02 0.0
1.625000e-01 1.250000e-02 0.0
1.750000e-01 1.250000e-02 0.0
1.875000e-01 1.250000e-02 0.0
2.000000e-01 1.250000e-02 0.0
2.125000e-01 1.250000e-02 0.0
2.250000e-01 1.250000e-02 0.0
2.375000e-01 1.250000e-02 0.0
2.500000e-01 1.250000e-02 0.0
2.625000e-01 1.250000e-02 0.0
2.750000e-01 1.250000e-02 0.0
2.875000e-01 1.250000e-02 0.0
3.000000e-01 1.250000e-02 0.0
3.125000e-01 1.250000e-02 0.0
3.250000e-01 1.250000e-02 0.0
3.375000e-01 1.250000e-02 0.0
3.500000e-01 1.250000e-02 0.0
3.625000e-01 1.250000e-02 0.0
3.750000e-01 1.250000e-02 0.0
3.875000e-01 1.250000e-02 0.0
4.000000e-01 1.250000e-02 0.0
4.125000e-01 1.250000e-02 0.0
4.250000e-01 1.250000e-02 0.0
4.375000e-01 1.250000e-02 0.0
4.500000e-01 1.250000e-02 0.0
4.625000e-01 1.250000e-02 0.0
4.750000e-01 1.250000e-02 0.0
4.875000e-01 1.250000e-02 0.0
5.000000e-01 1.250000e-02 0.0
5.125000e-01 1.250000e-02 0.0
5.250000e-01 1.250000e-02 0.0
5.375000e-01 1.250000e-02 0.0
5.500000e-01 1.250000e-02 0.0
5.625000e-01 1.250000e-02 0.0
5.750000e-01 1.250000e-02 0.0
5.875000e-01 1.250000e-02 0.0
6.000000e-01 1.250000e-02 0.0
6.125000e-01 1.250000e-02 0.0
6.250000e-01 1.250000e-02 0.0
6.375000e-01 1.250000e-02 0.0
6.500000e-01 1.250000e-02 0.0
6.625000e-01 1.250000e-02 0.0
6.750000e-01 1.250000e-02 0.0
6.875000e-01 1.250000e-02 0.0
7.000000e-01 1.250000e-02 0.0
7.125000e-01 1.250000e-02 0.0
7.250000e-01 1.250000e-02 0.0
7.375000e-01 1.250000e-02 0.0
7.500000e-01 1.250000e-02 0.0
7.625000e-01 1.250000e-02 0.0
7.750000e-01 1.250000e-02 0.0
7.875000e-01 1.250000e-02 0.0
8.000000e-01 1.250000e-02 0.0
8.125000e-01 1.250000e-02 0.0
8.250000e-01 1.250000e-02 0.0
8.375000e-01 1.250000e-02 0.0
8.500000e-01 1.250000e-02 0.0
8.625000e-01 1.250000e-02 0.0
8.750000e-01 1.250000e-02 0.0
8.875000e-01 1.250000e-02 0.0
9.000000e-01 1.250000e-02 0.0
9.125000e-01 1.250000e-02 0.0
9.250000e-01 1.250000e-02 0.0
9.375000e-01 1.250000e-02 0.0
9.500000e-01 1.250000e-02 0.0
9.625000e-01 1.250000e-02 0.0
9.750000e-01 1.250000e-02 0.0
9.875000e-01 1.250000e-02 0.0
1.000000e+00 1.250000e-02 0.0
0.000000e+00 2.500000e-02 0.0
1.250000e-02 2.500000e-02 0.0
2.500000e-02 2.500000e-02 0.0
3.750000e-02 2.500000e-02 0.0
5.000000e-02 2.500000e-02 0.0
6.250000e-02 2.500000e-02 0.0
7.500000e-02 2.500000e-02 0.0
8.750000e-02 2.500000e-02 0.0
1.000000e-01 2.500000e-02 0.0
1.125000e-01 2.500000e-02 0.0
1.250000e-01 2.500000e-02 0.0
1.375000e-01 2.500000e-02 0.0
1.500000e-01 2.500000e-02 0.0
1.625000e-01 2.500000e-02 0.0
1.750000e-01 2.500000e-02 0.0
1.875000e-01 2.500000e-02 0.0
2.000000e-01 2.500000e-02 0.0
2.125000e-01 2.500000e-02 0.0
2.250000e-01 2.500000e-02 0.0
2.375000e-01 2.500000e-02 0.0
2.500000e-01 2.500000e-02 0.0
2.625000e-01 2.500000e-02 0.0
2.750000e-01 2.500000e-02 0.0
2.875000e-01 2.500000e-02 0.0
3.000000e-01 2.500000e-02 0.0
3.125000e-01 2.500000e-02 0.0
3.250000e-01 2.500000e-02 0.0
3.375000e-01 2.500000e-02 0.0
3.500000e-01 2.500000e-02 0.0
3.625000e-01 2.500000e-02 0.0
3.750000e-01 2.500000e-02 0.0
3.875000e-01 2.500000e-02 0.0
4.000000e-01 2.500000e-02 0.0
4.125000e-01 2.500000e-02 0.0
4.250000e-01 2.500000e-02 0.0
4.375000e-01 2.500000e-02 0.0
4.500000e-01 2.500000e-02 0.0
4.625000e-01 2.500000e-02 0.0
4.750000e-01 2.500000e-02 0.0
4.875000e-01 2.500000e-02 0.0
5.000000e-01 2.500000e-02 0.0
5.125000e-01 2.500000e-02 0.0
5.250000e-01 2.500000e-02 0.0
5.375000e-01 2.500000e-02 0.0
5.500000e-01 2.500000e-02 0.0
5.625000e-01 2.500000e-02 0.0
5.750000e-01 2.500000e-02 0.0
5.875000e-01 2.500000e-02 0.0
6.000000e-01 2.500000e-02 0.0
6.125000e-01 2.500000e-02 0.0
6.250000e-01 2.500000e-02 0.0
6.375000e-01 2.500000e-02 0.0
6.500000e-01 2.500000e-02 0.0
6.625000e-01 2.500000e-02 0.0
6.750000e-01 2.500000e-02 0.0
6.875000e-01 2.500000e-02 0.0
7.000000e-01 2.500000e-02 0.0
7.125000e-01 2.500000e-02 0.0
7.250000e-01 2.500000e-02 0.0
7.375000e-01 2.500000e-02 0.0
7.500000e-01 2.500000e-02 0.0
7.625000e-01 2.500000e-02 0.0
7.750000e-01 2.500000e-02 0.0
7.875000e-01 2.500000e-02 0.0
8.000000e-01 2.500000e-02 0.0
8.125000e-01 2.500000e-02 0.0
8.250000e-01 2.500000e-02 0.0
8.375000e-01 2.500000e-02 0.0
8.500000e-01 2.500000e-02 0.0
8.625000e-01 2.500000e-02 0.0
8.750000e-01 2.500000e-02 0.0
8.875000e-01 2.500000e-02 0.0
9.000000e-01 2.500000e-02 0.0
9.125000e-01 2.500000e-02 0.0
9.250000e-01 2.500000e-02 0.0
9.375000e-01 2.500000e-02 0.0
9.500000e-01 2.500000e-02 0.0
9.625000e-01 2.500000e-02 0.0
9.750000e-01 2.500000e-02 0.0
9.875000e-01 2.500000e-02 0.0
1.000000e+00 2.500000e-02 0.0
0.000000e+00 3.750000e-02 0.0
1.250000e-02 3.750000e-02 0.0
2.500000e-02 3.750000e-02 0.0
3.750000e-02 3.750000e-02 0.0
5.000000e-02 3.750000e-02 0.0
6.250000e-02 3.750000e-02 0.0
7.500000e-02 3.750000e-02 0.0
8.750000e-02 3.750000e-02 0.0
1.000000e-01 3.750000e-02 0.0
1.125000e-01 3.750000e-02 0.0
1.250000e-01 3.750000e-02 0.0
1.375000e-01 3.750000e-02 0.0
1.500000e-01 3.750000e-02 0.0
1.625000e-01 3.750000e-02 0.0
1.750000e-01 3.750000e-02 0.0
1.875000e-01 3.750000e-02 0.0
2.000000e-01 3.750000e-02 0.0
2.125000e-01 3.750000e-02 0.0
2.250000e-01 3.750000e-02 0.0
2.375000e-01 3.750000e-02 0.0
2.500000e-01 3.750000e-02 0.0
2.625000e-01 3.750000e-02 0.0
2.750000e-01 3.750000e-02 0.0
2.875000e-01 3.750000e-02 0.0
3.000000e-01 3.750000e-02 0.0
3.125000e-01 3.750000e-02 0.0
3.250000e-01 3.750000e-02 0.0
3.375000e-01 3.750000e-02 0.0
3.500000e-01 3.750000e-02 0.0
3.625000e-01 3.750000e-02 0.0
3.750000e-01 3.750000e-02 0.0
3.875000e-01 3.750000e-02 0.0
4.000000e-01 3.750000e-02 0.0
4.125000e-01 3.750000e-02 0.0
4.250000e-01 3.750000e-02 0.0
4.375000e-01 3.750000e-02 0.0
4.500000e-01 3.750000e-02 0.0
4.625000e-01 3.750000e-02 0.0
4.750000e-01 3.750000e-02 0.0
4.875000e-01 3.750000e-02 0.0
5.000000e-01 3.750000e-02 0.0
5.125000e-01 3.750000e-02 0.0
5.250000e-01 3.750000e-02 0.0
5.375000e-01 3.750000e-02 0.0
5.500000e-01 3.750000e-02 0.0
5.625000e-01 3.750000e-02 0.0
5.750000e-01 3.750000e-02 0.0
5.875000e-01 3.750000e-02 0.0
6.000000e-01 3.750000e-02 0.0
6.125000e-01 3.750000e-02 0.0
6.250000e-01 3.750000e-02 0.0
6.375000e-01 3.750000e-02 0.0
6.500000e-01 3.750000e-02 0.0
6.625000e-01 3.750000e-02 0.0
6.750000e-01 3.750000e-02 0.0
6.875000e-01 3.750000e-02 0.0
7.000000e-01 3.750000e-02 0.0
7.125000e-01 3.750000e-02 0.0
7.250000e-01 3.750000e-02 0.0
7.375000e-01 3.750000e-02 0.0
7.500000e-01 3.750000e-02 0.0
7.625000e-01 3.750000e-02 0.0
7.750000e-01 3.750000e-02 0.0
7.875000e-01 3.750000e-02 0.0
8.000000e-01 3.750000e-02 0.0
8.125000e-01 3.750000e-02 0.0
8.250000e-01 3.750000e-02 0.0
8.375000e-01 3.750000e-02 0.0
8.500000e-01 3.750000e-02 0.0
8.625000e-01 3.750000e-02 0.0
8.750000e-01 3.750000e-02 0.0
8.875000e-01 3.750000e-02 0.0
9.000000e-01 3.750000e-02 0.0
9.125000e-01 3.750000e-02 0.0
9.250000e-01 3.750000e-02 0.0
9.375000e-01 3.750000e-02 0.0
9.500000e-01 3.750000e-02 0.0
9.625000e-01 3.750000e-02 0.0
9.750000e-01 3.750000e-02 0.0
9.875000e-01 3.750000e-02 0.0
1.000000e+00 3.750000e-02 0.0
0.000000e+00 5.000000e-02 0.0
1.250000e-02 5.000000e-02 0.0
2.500000e-02 5.000000e-02 0.0
3.750000e-02 5.000000e-02 0.0
[...]
CELL_DATA 6400
SCALARS Temperature double 1
LOOKUP_TABLE default
5.000000e-01
2.333187e-01
1.282872e-01
8.584536e-02
6.412689e-02
5.088347e-02
4.190440e-02
3.539865e-02
3.046633e-02
2.660051e-02
2.349198e-02
2.094087e-02
1.881201e-02
1.701067e-02
1.546844e-02
1.413469e-02
1.297112e-02
1.194822e-02
1.104292e-02
1.023688e-02
9.515373e-03
8.866408e-03
8.280147e-03
7.748434e-03
7.264450e-03
6.822455e-03
6.417579e-03
6.045665e-03
5.703144e-03
5.386938e-03
5.094372e-03
4.823116e-03
4.571130e-03
4.336621e-03
4.118004e-03
3.913878e-03
3.722996e-03
3.544248e-03
3.376638e-03
3.219278e-03
3.071364e-03
2.932176e-03
2.801062e-03
2.677431e-03
2.560747e-03
2.450525e-03
2.346321e-03
2.247732e-03
2.154389e-03
2.065956e-03
1.982126e-03
1.902616e-03
1.827169e-03
1.755549e-03
1.687540e-03
1.622945e-03
1.561584e-03
1.503293e-03
1.447923e-03
1.395340e-03
1.345423e-03
1.298065e-03
1.253170e-03
1.210657e-03
1.170456e-03
1.132510e-03
1.096776e-03
1.063221e-03
1.031829e-03
1.002597e-03
9.755364e-04
9.506767e-04
9.280639e-04
9.077638e-04
8.898632e-04
8.744722e-04
8.617272e-04
8.517933e-04
8.448684e-04
8.411868e-04
7.666813e-01
5.000000e-01
3.428105e-01
2.510029e-01
1.942379e-01
1.565851e-01
1.300424e-01
1.104144e-01
9.535182e-02
8.345202e-02
7.383008e-02
6.590134e-02
5.926452e-02
5.363524e-02
4.880645e-02
4.462390e-02
4.097033e-02
3.775505e-02
3.490681e-02
3.236891e-02
3.009563e-02
2.804974e-02
2.620058e-02
2.452273e-02
2.299488e-02
2.159909e-02
2.032011e-02
1.914492e-02
1.806233e-02
1.706267e-02
1.613756e-02
1.527966e-02
1.448256e-02
1.374063e-02
1.304887e-02
1.240287e-02
1.179871e-02
1.123288e-02
1.070226e-02
1.020402e-02
9.735657e-03
9.294879e-03
8.879633e-03
8.488055e-03
8.118454e-03
7.769295e-03
7.439178e-03
7.126829e-03
6.831084e-03
6.550880e-03
6.285244e-03
6.033286e-03
5.794191e-03
5.567214e-03
5.351672e-03
5.146942e-03
4.952453e-03
4.767689e-03
4.592177e-03
4.425494e-03
4.267257e-03
4.117125e-03
3.974800e-03
3.840022e-03
3.712571e-03
3.592267e-03
3.478971e-03
3.372584e-03
3.273052e-03
3.180366e-03
3.094565e-03
3.015740e-03
2.944040e-03
2.879671e-03
2.822911e-03
2.774108e-03
2.733694e-03
2.702194e-03
2.680236e-03
2.668562e-03
8.717128e-01
6.571895e-01
5.000000e-01
3.902019e-01
3.133506e-01
2.582097e-01
2.173924e-01
1.862525e-01
1.618547e-01
1.423000e-01
1.263227e-01
1.130540e-01
1.018805e-01
9.235851e-02
8.415961e-02
7.703600e-02
7.079742e-02
6.529545e-02
6.041271e-02
5.605521e-02
5.214681e-02
4.862523e-02
4.543904e-02
4.254539e-02
3.990833e-02
3.749747e-02
3.528695e-02
3.325465e-02
3.138150e-02
2.965103e-02
2.804890e-02
2.656259e-02
2.518112e-02
2.389482e-02
2.269514e-02
2.157450e-02
2.052616e-02
1.954410e-02
1.862293e-02
1.775780e-02
1.694438e-02
1.617872e-02
1.545729e-02
1.477687e-02
1.413454e-02
1.352764e-02
1.295377e-02
1.241071e-02
1.189646e-02
1.140917e-02
1.094717e-02
1.050891e-02
1.009299e-02
9.698108e-03
9.323088e-03
8.966849e-03
8.628405e-03
8.306858e-03
8.001393e-03
7.711272e-03
7.435835e-03
7.174492e-03
6.926724e-03
6.692081e-03
6.470184e-03
6.260719e-03
6.063447e-03
5.878198e-03
5.704879e-03
5.543476e-03
5.394057e-03
5.256784e-03
5.131914e-03
5.019811e-03
4.920955e-03
4.835957e-03
4.765569e-03
4.710706e-03
4.672461e-03
4.652128e-03
9.141546e-01
7.489971e-01
6.097981e-01
5.000000e-01
4.154581e-01
3.503989e-01
2.997760e-01
2.597632e-01
2.276056e-01
2.013458e-01
1.795876e-01
1.613229e-01
1.458124e-01
1.325055e-01
1.209851e-01
1.109308e-01
1.020927e-01
9.427372e-02
8.731615e-02
8.109274e-02
7.549963e-02
7.045133e-02
6.587685e-02
6.171678e-02
5.792106e-02
5.444721e-02
5.125899e-02
4.832525e-02
4.561916e-02
4.311740e-02
4.079967e-02
3.864822e-02
3.664744e-02
3.478356e-02
3.304439e-02
3.141911e-02
2.989808e-02
2.847269e-02
2.713521e-02
2.587871e-02
2.469694e-02
2.358427e-02
2.253558e-02
2.154626e-02
2.061210e-02
1.972929e-02
1.889434e-02
1.810407e-02
1.735558e-02
1.664622e-02
1.597355e-02
1.533536e-02
1.472959e-02
1.415440e-02
1.360806e-02
1.308902e-02
1.259584e-02
1.212724e-02
1.168202e-02
1.125912e-02
1.085759e-02
1.047657e-02
1.011532e-02
9.773166e-03
9.449577e-03
9.144097e-03
8.856379e-03
8.586181e-03
8.333368e-03
8.097923e-03
7.879951e-03
7.679688e-03
7.497512e-03
7.333956e-03
7.189724e-03
7.065706e-03
6.963005e-03
6.882955e-03
6.827150e-03
6.797481e-03
9.358731e-01
8.057621e-01
6.866494e-01
5.845419e-01
5.000000e-01
4.309939e-01
3.747752e-01
3.287457e-01
2.907419e-01
2.590574e-01
2.323770e-01
2.096932e-01
1.902328e-01
1.733985e-01
1.587252e-01
1.458468e-01
1.344726e-01
1.243694e-01
1.153483e-01
1.072551e-01
9.996278e-02
9.336593e-02
8.737633e-02
8.191974e-02
7.693322e-02
7.236314e-02
6.816351e-02
6.429470e-02
6.072238e-02
5.741670e-02
5.435157e-02
5.150409e-02
4.885410e-02
4.638379e-02
4.407736e-02
4.192074e-02
3.990139e-02
3.800807e-02
3.623072e-02
3.456026e-02
3.298853e-02
3.150814e-02
3.011240e-02
2.879523e-02
2.755113e-02
2.637506e-02
2.526244e-02
2.420909e-02
2.321119e-02
2.226523e-02
2.136801e-02
2.051659e-02
1.970827e-02
1.894061e-02
1.821132e-02
1.751836e-02
1.685982e-02
1.623400e-02
1.563932e-02
1.507439e-02
1.453793e-02
1.402880e-02
1.354603e-02
1.308875e-02
1.265623e-02
1.224787e-02
1.186322e-02
1.150197e-02
1.116393e-02
1.084909e-02
1.055760e-02
1.028978e-02
1.004613e-02
9.827378e-03
9.634461e-03
9.468576e-03
9.331200e-03
9.224120e-03
9.149471e-03
9.109783e-03
9.491165e-01
8.434149e-01
7.417903e-01
6.496011e-01
5.690061e-01
5.000000e-01
4.414839e-01
3.919816e-01
3.500193e-01
3.142858e-01
2.836777e-01
2.572916e-01
2.343971e-01
2.144063e-01
1.968452e-01
1.813311e-01
1.675526e-01
1.552555e-01
1.442305e-01
1.343043e-01
1.253327e-01
1.171944e-01
1.097875e-01
1.030252e-01
9.683360e-02
9.114935e-02
8.591777e-02
8.109154e-02
7.662952e-02
7.249576e-02
6.865875e-02
6.509073e-02
6.176723e-02
5.866652e-02
5.576930e-02
5.305836e-02
5.051831e-02
4.813534e-02
4.589706e-02
4.379229e-02
4.181093e-02
3.994384e-02
3.818275e-02
3.652012e-02
3.494911e-02
3.346347e-02
3.205750e-02
3.072600e-02
2.946419e-02
2.826772e-02
2.713259e-02
2.605512e-02
2.503195e-02
2.406000e-02
2.313644e-02
2.225870e-02
2.142439e-02
2.063139e-02
1.987771e-02
1.916161e-02
1.848148e-02
1.783593e-02
1.722369e-02
1.664370e-02
1.609504e-02
1.557698e-02
1.508895e-02
1.463054e-02
1.420156e-02
1.380198e-02
1.343201e-02
1.309204e-02
1.278275e-02
1.250504e-02
1.226012e-02
1.204951e-02
1.187508e-02
1.173912e-02
1.164434e-02
1.159395e-02
9.580956e-01
8.699576e-01
7.826076e-01
7.002240e-01
6.252248e-01
5.585161e-01
5.000000e-01
4.490360e-01
4.047610e-01
3.662773e-01
3.327460e-01
3.034258e-01
2.776809e-01
2.549752e-01
2.348597e-01
2.169603e-01
2.009649e-01
1.866130e-01
1.736860e-01
1.620003e-01
1.514008e-01
1.417556e-01
1.329527e-01
1.248960e-01
1.175028e-01
1.107018e-01
1.044311e-01
9.863673e-02
9.327164e-02
8.829448e-02
8.366885e-02
7.936259e-02
7.534720e-02
7.159734e-02
6.809043e-02
6.480625e-02
6.172671e-02
5.883554e-02
5.611808e-02
5.356110e-02
5.115263e-02
4.888181e-02
4.673879e-02
4.471461e-02
4.280108e-02
4.099076e-02
3.927682e-02
3.765303e-02
3.611367e-02
3.465351e-02
3.326776e-02
3.195199e-02
3.070216e-02
2.951457e-02
2.838581e-02
2.731277e-02
2.629259e-02
2.532269e-02
2.440070e-02
2.352449e-02
2.269215e-02
2.190196e-02
2.115244e-02
2.044227e-02
1.977037e-02
1.913585e-02
1.853802e-02
1.797642e-02
1.745080e-02
1.696117e-02
1.650776e-02
1.609110e-02
1.571199e-02
1.537158e-02
1.507134e-02
1.481314e-02
1.459930e-02
1.443261e-02
1.431640e-02
1.425462e-02
9.646014e-01
8.895856e-01
8.137475e-01
7.402368e-01
6.712543e-01
6.080184e-01
5.509640e-01
5.000000e-01
4.547319e-01
4.146232e-01
3.790967e-01
3.475921e-01
3.195950e-01
2.946476e-01
2.723499e-01
2.523569e-01
2.343722e-01
2.181420e-01
2.034495e-01
1.901088e-01
1.779605e-01
1.668676e-01
1.567119e-01
1.473911e-01
1.388166e-01
1.309111e-01
1.236071e-01
1.168454e-01
1.105740e-01
1.047471e-01
9.932406e-02
9.426882e-02
8.954937e-02
8.513710e-02
8.100642e-02
7.713441e-02
7.350043e-02
7.008590e-02
6.687404e-02
6.384966e-02
6.099900e-02
5.830956e-02
5.576995e-02
5.336982e-02
5.109970e-02
4.895093e-02
4.691561e-02
4.498647e-02
4.315688e-02
4.142072e-02
3.977240e-02
3.820676e-02
3.671908e-02
3.530502e-02
3.396060e-02
3.268217e-02
3.146639e-02
3.031022e-02
2.921089e-02
2.816590e-02
2.717300e-02
2.623019e-02
2.533572e-02
2.448806e-02
2.368593e-02
2.292830e-02
2.221437e-02
2.154361e-02
2.091575e-02
2.033079e-02
1.978906e-02
1.929117e-02
1.883813e-02
1.843128e-02
1.807242e-02
1.776381e-02
1.750820e-02
1.730893e-02
1.717001e-02
1.709615e-02
9.695337e-01
9.046482e-01
8.381453e-01
7.723944e-01
7.092581e-01
6.499807e-01
5.952390e-01
5.452681e-01
5.000000e-01
4.591820e-01
4.224645e-01
3.894610e-01
3.597841e-01
3.330668e-01
3.089723e-01
2.871983e-01
2.674765e-01
2.495709e-01
2.332749e-01
2.184081e-01
2.048131e-01
1.923525e-01
1.809061e-01
1.703690e-01
1.606489e-01
1.516650e-01
1.433460e-01
1.356288e-01
1.284579e-01
1.217837e-01
1.155622e-01
1.097543e-01
1.043248e-01
9.924250e-02
9.447902e-02
9.000904e-02
8.580966e-02
8.186020e-02
7.814192e-02
7.463782e-02
7.133248e-02
6.821182e-02
6.526304e-02
6.247443e-02
5.983529e-02
5.733582e-02
5.496704e-02
5.272071e-02
5.058927e-02
4.856576e-02
4.664380e-02
4.481751e-02
4.308148e-02
4.143076e-02
3.986079e-02
3.836737e-02
3.694671e-02
3.559529e-02
3.430994e-02
3.308781e-02
3.192630e-02
3.082312e-02
2.977627e-02
2.878399e-02
2.784482e-02
2.695758e-02
2.612138e-02
2.533561e-02
2.459998e-02
2.391452e-02
2.327963e-02
2.269607e-02
2.216501e-02
2.168806e-02
2.126733e-02
2.090548e-02
2.060576e-02
2.037211e-02
2.020920e-02
2.012259e-02
9.733995e-01
9.165480e-01
8.577000e-01
7.986542e-01
7.409426e-01
6.857142e-01
6.337227e-01
5.853768e-01
5.408180e-01
5.000000e-01
4.627557e-01
4.288494e-01
3.980136e-01
3.699729e-01
3.444592e-01
3.212206e-01
3.000247e-01
2.806612e-01
2.629407e-01
2.466945e-01
2.317723e-01
2.180409e-01
2.053819e-01
1.936908e-01
1.828747e-01
1.728510e-01
1.635466e-01
1.548962e-01
1.468417e-01
1.393311e-01
1.323179e-01
1.257605e-01
1.196214e-01
1.138669e-01
1.084666e-01
1.033931e-01
9.862142e-02
9.412914e-02
8.989574e-02
8.590261e-02
8.213278e-02
7.857077e-02
7.520241e-02
7.201477e-02
6.899598e-02
6.613516e-02
6.342231e-02
6.084825e-02
5.840454e-02
5.608341e-02
5.387770e-02
5.178084e-02
4.978675e-02
4.788988e-02
4.608509e-02
4.436768e-02
4.273335e-02
4.117817e-02
3.969856e-02
3.829129e-02
3.695346e-02
3.568247e-02
3.447606e-02
3.333227e-02
3.224947e-02
3.122632e-02
3.026183e-02
2.935534e-02
2.850656e-02
2.771555e-02
2.698278e-02
2.630917e-02
2.569608e-02
2.514541e-02
2.465961e-02
2.424176e-02
2.389564e-02
2.362580e-02
2.343766e-02
2.333762e-02
9.765080e-01
9.261699e-01
8.736773e-01
8.204124e-01
7.676230e-01
7.163223e-01
6.672540e-01
6.209033e-01
5.775355e-01
5.372443e-01
5.000000e-01
4.656898e-01
4.341505e-01
4.051921e-01
3.786142e-01
3.542175e-01
3.318098e-01
3.112109e-01
2.922538e-01
2.747857e-01
2.586680e-01
2.437752e-01
2.299943e-01
2.172238e-01
2.053725e-01
1.943585e-01
1.841085e-01
1.745564e-01
1.656430e-01
1.573148e-01
1.495239e-01
1.422267e-01
1.353843e-01
1.289610e-01
1.229249e-01
1.172467e-01
1.119000e-01
1.068608e-01
1.021069e-01
9.761852e-02
9.337718e-02
8.936618e-02
8.557015e-02
8.197501e-02
7.856783e-02
7.533672e-02
7.227074e-02
6.935983e-02
6.659470e-02
6.396683e-02
6.146832e-02
5.909192e-02
5.683093e-02
5.467919e-02
5.263104e-02
5.068126e-02
4.882508e-02
4.705815e-02
4.537649e-02
4.377653e-02
4.225503e-02
4.080913e-02
3.943631e-02
3.813441e-02
3.690162e-02
3.573648e-02
3.463790e-02
3.360518e-02
3.263802e-02
3.173653e-02
3.090129e-02
3.013336e-02
2.943435e-02
2.880644e-02
2.825244e-02
2.777589e-02
2.738111e-02
2.707332e-02
2.685871e-02
2.674460e-02
9.790591e-01
9.340987e-01
8.869460e-01
8.386771e-01
7.903068e-01
7.427084e-01
6.965742e-01
6.524079e-01
6.105390e-01
5.711506e-01
5.343102e-01
5.000000e-01
4.681429e-01
4.386236e-01
4.113042e-01
3.860364e-01
3.626692e-01
3.410543e-01
3.210500e-01
3.025228e-01
2.853483e-01
2.694120e-01
2.546088e-01
2.408427e-01
2.280265e-01
2.160808e-01
2.049337e-01
1.945197e-01
1.847797e-01
1.756600e-01
1.671118e-01
1.590909e-01
1.515571e-01
1.444737e-01
1.378075e-01
1.315280e-01
1.256076e-01
1.200209e-01
1.147447e-01
1.097578e-01
1.050408e-01
1.005758e-01
9.634630e-02
9.233733e-02
8.853497e-02
8.492642e-02
8.149988e-02
7.824447e-02
7.515014e-02
7.220764e-02
6.940840e-02
6.674452e-02
6.420871e-02
6.179425e-02
5.949495e-02
5.730513e-02
5.521955e-02
5.323346e-02
5.134251e-02
4.954277e-02
4.783071e-02
4.620320e-02
4.465747e-02
4.319118e-02
4.180235e-02
4.048940e-02
3.925116e-02
3.808690e-02
3.699632e-02
3.597961e-02
3.503745e-02
3.417109e-02
3.338237e-02
3.267378e-02
3.204853e-02
3.151065e-02
3.106503e-02
3.071758e-02
3.047531e-02
3.034649e-02
9.811880e-01
9.407355e-01
8.981195e-01
8.541876e-01
8.097672e-01
7.656029e-01
7.223191e-01
6.804050e-01
6.402159e-01
6.019864e-01
5.658495e-01
5.318571e-01
5.000000e-01
4.702252e-01
4.424499e-01
4.165725e-01
3.924815e-01
3.700608e-01
3.491947e-01
3.297707e-01
3.116808e-01
2.948235e-01
2.791035e-01
2.644324e-01
2.507286e-01
2.379168e-01
2.259279e-01
2.146988e-01
2.041712e-01
1.942924e-01
1.850136e-01
1.762905e-01
1.680826e-01
1.603527e-01
1.530667e-01
1.461936e-01
1.397046e-01
1.335736e-01
1.277764e-01
1.222910e-01
1.170969e-01
1.121753e-01
1.075091e-01
1.030821e-01
9.887980e-02
9.488849e-02
9.109563e-02
8.748962e-02
8.405972e-02
8.079600e-02
7.768928e-02
7.473107e-02
7.191352e-02
6.922939e-02
6.667200e-02
6.423521e-02
6.191339e-02
5.970136e-02
5.759444e-02
5.558838e-02
5.367934e-02
5.186394e-02
5.013922e-02
4.850262e-02
4.695202e-02
4.548574e-02
4.410255e-02
4.280168e-02
4.158287e-02
4.044639e-02
3.939305e-02
3.842428e-02
3.754220e-02
3.674963e-02
3.605020e-02
3.544844e-02
3.494987e-02
3.456110e-02
3.429000e-02
3.414585e-02
9.829893e-01
9.463648e-01
9.076415e-01
8.674945e-01
8.266015e-01
7.855937e-01
7.450248e-01
7.053524e-01
6.669332e-01
6.300271e-01
5.948079e-01
5.613764e-01
5.297748e-01
5.000000e-01
4.720155e-01
4.457614e-01
4.211617e-01
3.981315e-01
3.765807e-01
3.564180e-01
3.375531e-01
3.198983e-01
3.033698e-01
2.878881e-01
2.733787e-01
2.597718e-01
2.470024e-01
2.350103e-01
2.237399e-01
2.131397e-01
2.031622e-01
1.937637e-01
1.849038e-01
1.765454e-01
1.686542e-01
1.611989e-01
1.541503e-01
1.474815e-01
1.411680e-01
1.351869e-01
1.295171e-01
1.241392e-01
1.190351e-01
1.141882e-01
1.095832e-01
1.052056e-01
1.010424e-01
9.708130e-02
9.331090e-02
8.972071e-02
8.630099e-02
8.304272e-02
7.993755e-02
7.697775e-02
7.415621e-02
7.146636e-02
6.890217e-02
6.645812e-02
6.412918e-02
6.191080e-02
5.979889e-02
5.778983e-02
5.588044e-02
5.406801e-02
5.235028e-02
5.072549e-02
4.919235e-02
4.775009e-02
4.639849e-02
4.513791e-02
4.396931e-02
4.289436e-02
4.191543e-02
4.103571e-02
4.025929e-02
3.959121e-02
3.903764e-02
3.860595e-02
3.830492e-02
3.814485e-02
9.845316e-01
9.511935e-01
9.158404e-01
8.790149e-01
8.412748e-01
8.031548e-01
7.651403e-01
7.276501e-01
6.910277e-01
6.555408e-01
6.213858e-01
5.886958e-01
5.575501e-01
5.279845e-01
5.000000e-01
4.735719e-01
4.486564e-01
4.251963e-01
4.031262e-01
3.823756e-01
3.628715e-01
3.445412e-01
3.273128e-01
3.111168e-01
2.958867e-01
2.815590e-01
2.680741e-01
2.553759e-01
2.434116e-01
2.321324e-01
2.214925e-01
2.114495e-01
2.019639e-01
1.929992e-01
1.845214e-01
1.764991e-01
1.689032e-01
1.617067e-01
1.548845e-01
1.484134e-01
1.422720e-01
1.364402e-01
1.308997e-01
1.256331e-01
1.206245e-01
1.158592e-01
1.113233e-01
1.070042e-01
1.028898e-01
9.896928e-02
9.523232e-02
9.166944e-02
8.827184e-02
8.503139e-02
8.194054e-02
7.899237e-02
7.618048e-02
7.349902e-02
7.094268e-02
6.850662e-02
6.618651e-02
6.397851e-02
6.187927e-02
5.988592e-02
5.799610e-02
5.620798e-02
5.452022e-02
5.293208e-02
5.144340e-02
5.005464e-02
4.876695e-02
4.758222e-02
4.650314e-02
4.553327e-02
4.467716e-02
4.394043e-02
4.332993e-02
4.285381e-02
4.252178e-02
4.234521e-02
9.858653e-01
9.553761e-01
9.229640e-01
8.890692e-01
8.541532e-01
8.186689e-01
7.830397e-01
7.476431e-01
7.128017e-01
6.787794e-01
6.457825e-01
6.139636e-01
5.834275e-01
5.542386e-01
5.264281e-01
5.000000e-01
4.749379e-01
4.512097e-01
4.287722e-01
4.075745e-01
3.875609e-01
3.686730e-01
3.508513e-01
3.340369e-01
3.181717e-01
3.031997e-01
2.890670e-01
2.757222e-01
2.631166e-01
2.512043e-01
2.399420e-01
2.292892e-01
2.192079e-01
2.096626e-01
2.006201e-01
1.920494e-01
1.839218e-01
1.762104e-01
1.688900e-01
1.619375e-01
1.553311e-01
1.490506e-01
1.430771e-01
1.373931e-01
1.319822e-01
1.268294e-01
1.219203e-01
1.172417e-01
1.127815e-01
1.085281e-01
1.044709e-01
1.006001e-01
9.690636e-02
9.338127e-02
9.001693e-02
8.680605e-02
8.374195e-02
8.081847e-02
7.803003e-02
7.537156e-02
7.283851e-02
7.042684e-02
6.813307e-02
6.595418e-02
6.388774e-02
6.193185e-02
6.008517e-02
5.834700e-02
5.671724e-02
5.519650e-02
5.378613e-02
5.248826e-02
5.130590e-02
5.024304e-02
4.930472e-02
4.849715e-02
4.782787e-02
4.730588e-02
4.694183e-02
4.674823e-02
9.870289e-01
9.590297e-01
9.292026e-01
8.979073e-01
8.655274e-01
8.324474e-01
7.990351e-01
7.656278e-01
7.325235e-01
6.999753e-01
6.681902e-01
6.373308e-01
6.075185e-01
5.788383e-01
5.513436e-01
5.250621e-01
5.000000e-01
4.761468e-01
4.534792e-01
4.319643e-01
4.115623e-01
3.922290e-01
3.739172e-01
3.565783e-01
3.401632e-01
3.246236e-01
3.099119e-01
2.959821e-01
2.827899e-01
2.702931e-01
2.584513e-01
2.472265e-01
2.365825e-01
2.264853e-01
2.169030e-01
2.078055e-01
1.991647e-01
1.909540e-01
1.831488e-01
1.757258e-01
1.686634e-01
1.619414e-01
1.555407e-01
1.494437e-01
1.436337e-01
1.380953e-01
1.328141e-01
1.277764e-01
1.229698e-01
1.183825e-01
1.140034e-01
1.098225e-01
1.058301e-01
1.020174e-01
9.837635e-02
9.489930e-02
9.157930e-02
8.840996e-02
8.538546e-02
8.250052e-02
7.975040e-02
7.713093e-02
7.463847e-02
7.226992e-02
7.002277e-02
6.789510e-02
6.588559e-02
6.399357e-02
6.221907e-02
6.056284e-02
5.902645e-02
5.761230e-02
5.632378e-02
5.516528e-02
5.414238e-02
5.326190e-02
5.253212e-02
5.196291e-02
5.156590e-02
5.135476e-02
9.880518e-01
9.622450e-01
9.347046e-01
9.057263e-01
8.756306e-01
8.447445e-01
8.133870e-01
7.818580e-01
7.504291e-01
7.193388e-01
6.887891e-01
6.589457e-01
6.299392e-01
6.018685e-01
5.748037e-01
5.487903e-01
5.238532e-01
5.000000e-01
4.772247e-01
4.555104e-01
4.348321e-01
4.151587e-01
3.964547e-01
3.786818e-01
3.618001e-01
3.457687e-01
3.305470e-01
3.160945e-01
3.023719e-01
2.893409e-01
2.769646e-01
2.652077e-01
2.540365e-01
2.434188e-01
2.333243e-01
2.237241e-01
2.145909e-01
2.058992e-01
1.976247e-01
1.897447e-01
1.822377e-01
1.750836e-01
1.682635e-01
1.617597e-01
1.555556e-01
1.496355e-01
1.439848e-01
1.385899e-01
1.334379e-01
1.285169e-01
1.238156e-01
1.193235e-01
1.150310e-01
1.109289e-01
1.070089e-01
1.032631e-01
9.968440e-02
9.626616e-02
9.300238e-02
8.988760e-02
8.691696e-02
8.408613e-02
8.139138e-02
7.882955e-02
7.639809e-02
7.409507e-02
7.191920e-02
6.986991e-02
6.794734e-02
6.615242e-02
6.448696e-02
6.295368e-02
6.155632e-02
6.029974e-02
5.919006e-02
5.823477e-02
5.744290e-02
5.682519e-02
5.639434e-02
5.616520e-02
9.889571e-01
9.650932e-01
9.395873e-01
9.126838e-01
8.846517e-01
8.557695e-01
8.263140e-01
7.965505e-01
7.667251e-01
7.370593e-01
7.077462e-01
6.789500e-01
6.508053e-01
6.234193e-01
5.968738e-01
5.712278e-01
5.465208e-01
5.227753e-01
5.000000e-01
4.781920e-01
4.573395e-01
4.374235e-01
4.184193e-01
4.002988e-01
3.830305e-01
3.665816e-01
3.509179e-01
3.360049e-01
3.218085e-01
3.082946e-01
2.954300e-01
2.831828e-01
2.715216e-01
2.604168e-01
2.498397e-01
2.397630e-01
2.301608e-01
2.210084e-01
2.122824e-01
2.039607e-01
1.960224e-01
1.884477e-01
1.812179e-01
1.743155e-01
1.677239e-01
1.614276e-01
1.554119e-01
1.496630e-01
1.441681e-01
1.389149e-01
1.338922e-01
1.290894e-01
1.244964e-01
1.201041e-01
1.159038e-01
1.118877e-01
1.080483e-01
1.043790e-01
1.008734e-01
9.752618e-02
9.433219e-02
9.128707e-02
8.838702e-02
8.562883e-02
8.300995e-02
8.052846e-02
7.818316e-02
7.597355e-02
7.389994e-02
7.196347e-02
7.016619e-02
6.851117e-02
6.700255e-02
6.564567e-02
6.444721e-02
6.341536e-02
6.255992e-02
6.189257e-02
6.142706e-02
6.117948e-02
9.897631e-01
9.676311e-01
9.439448e-01
9.189073e-01
8.927449e-01
8.656957e-01
8.379997e-01
8.098912e-01
7.815919e-01
7.533055e-01
7.252143e-01
6.974772e-01
6.702293e-01