# vtk DataFile Version 3.0
9.SOU_1Pe = 100,Grid 41x41,000780.vtk
ASCII
DATASET STRUCTURED_GRID
DIMENSIONS 41 41 1
POINTS 1681 double
0.000000e+00 0.000000e+00 0.0
2.500000e-02 0.000000e+00 0.0
5.000000e-02 0.000000e+00 0.0
7.500000e-02 0.000000e+00 0.0
1.000000e-01 0.000000e+00 0.0
1.250000e-01 0.000000e+00 0.0
1.500000e-01 0.000000e+00 0.0
1.750000e-01 0.000000e+00 0.0
2.000000e-01 0.000000e+00 0.0
2.250000e-01 0.000000e+00 0.0
2.500000e-01 0.000000e+00 0.0
2.750000e-01 0.000000e+00 0.0
3.000000e-01 0.000000e+00 0.0
3.250000e-01 0.000000e+00 0.0
3.500000e-01 0.000000e+00 0.0
3.750000e-01 0.000000e+00 0.0
4.000000e-01 0.000000e+00 0.0
4.250000e-01 0.000000e+00 0.0
4.500000e-01 0.000000e+00 0.0
4.750000e-01 0.000000e+00 0.0
5.000000e-01 0.000000e+00 0.0
5.250000e-01 0.000000e+00 0.0
5.500000e-01 0.000000e+00 0.0
5.750000e-01 0.000000e+00 0.0
6.000000e-01 0.000000e+00 0.0
6.250000e-01 0.000000e+00 0.0
6.500000e-01 0.000000e+00 0.0
6.750000e-01 0.000000e+00 0.0
7.000000e-01 0.000000e+00 0.0
7.250000e-01 0.000000e+00 0.0
7.500000e-01 0.000000e+00 0.0
7.750000e-01 0.000000e+00 0.0
8.000000e-01 0.000000e+00 0.0
8.250000e-01 0.000000e+00 0.0
8.500000e-01 0.000000e+00 0.0
8.750000e-01 0.000000e+00 0.0
9.000000e-01 0.000000e+00 0.0
9.250000e-01 0.000000e+00 0.0
9.500000e-01 0.000000e+00 0.0
9.750000e-01 0.000000e+00 0.0
1.000000e+00 0.000000e+00 0.0
0.000000e+00 2.500000e-02 0.0
2.500000e-02 2.500000e-02 0.0
5.000000e-02 2.500000e-02 0.0
7.500000e-02 2.500000e-02 0.0
1.000000e-01 2.500000e-02 0.0
1.250000e-01 2.500000e-02 0.0
1.500000e-01 2.500000e-02 0.0
1.750000e-01 2.500000e-02 0.0
2.000000e-01 2.500000e-02 0.0
2.250000e-01 2.500000e-02 0.0
2.500000e-01 2.500000e-02 0.0
2.750000e-01 2.500000e-02 0.0
3.000000e-01 2.500000e-02 0.0
3.250000e-01 2.500000e-02 0.0
3.500000e-01 2.500000e-02 0.0
3.750000e-01 2.500000e-02 0.0
4.000000e-01 2.500000e-02 0.0
4.250000e-01 2.500000e-02 0.0
4.500000e-01 2.500000e-02 0.0
4.750000e-01 2.500000e-02 0.0
5.000000e-01 2.500000e-02 0.0
5.250000e-01 2.500000e-02 0.0
5.500000e-01 2.500000e-02 0.0
5.750000e-01 2.500000e-02 0.0
6.000000e-01 2.500000e-02 0.0
6.250000e-01 2.500000e-02 0.0
6.500000e-01 2.500000e-02 0.0
6.750000e-01 2.500000e-02 0.0
7.000000e-01 2.500000e-02 0.0
7.250000e-01 2.500000e-02 0.0
7.500000e-01 2.500000e-02 0.0
7.750000e-01 2.500000e-02 0.0
8.000000e-01 2.500000e-02 0.0
8.250000e-01 2.500000e-02 0.0
8.500000e-01 2.500000e-02 0.0
8.750000e-01 2.500000e-02 0.0
9.000000e-01 2.500000e-02 0.0
9.250000e-01 2.500000e-02 0.0
9.500000e-01 2.500000e-02 0.0
9.750000e-01 2.500000e-02 0.0
1.000000e+00 2.500000e-02 0.0
0.000000e+00 5.000000e-02 0.0
2.500000e-02 5.000000e-02 0.0
5.000000e-02 5.000000e-02 0.0
7.500000e-02 5.000000e-02 0.0
1.000000e-01 5.000000e-02 0.0
1.250000e-01 5.000000e-02 0.0
1.500000e-01 5.000000e-02 0.0
1.750000e-01 5.000000e-02 0.0
2.000000e-01 5.000000e-02 0.0
2.250000e-01 5.000000e-02 0.0
2.500000e-01 5.000000e-02 0.0
2.750000e-01 5.000000e-02 0.0
3.000000e-01 5.000000e-02 0.0
3.250000e-01 5.000000e-02 0.0
3.500000e-01 5.000000e-02 0.0
3.750000e-01 5.000000e-02 0.0
4.000000e-01 5.000000e-02 0.0
4.250000e-01 5.000000e-02 0.0
4.500000e-01 5.000000e-02 0.0
4.750000e-01 5.000000e-02 0.0
5.000000e-01 5.000000e-02 0.0
5.250000e-01 5.000000e-02 0.0
5.500000e-01 5.000000e-02 0.0
5.750000e-01 5.000000e-02 0.0
6.000000e-01 5.000000e-02 0.0
6.250000e-01 5.000000e-02 0.0
6.500000e-01 5.000000e-02 0.0
6.750000e-01 5.000000e-02 0.0
7.000000e-01 5.000000e-02 0.0
7.250000e-01 5.000000e-02 0.0
7.500000e-01 5.000000e-02 0.0
7.750000e-01 5.000000e-02 0.0
8.000000e-01 5.000000e-02 0.0
8.250000e-01 5.000000e-02 0.0
8.500000e-01 5.000000e-02 0.0
8.750000e-01 5.000000e-02 0.0
9.000000e-01 5.000000e-02 0.0
9.250000e-01 5.000000e-02 0.0
9.500000e-01 5.000000e-02 0.0
9.750000e-01 5.000000e-02 0.0
1.000000e+00 5.000000e-02 0.0
0.000000e+00 7.500000e-02 0.0
2.500000e-02 7.500000e-02 0.0
5.000000e-02 7.500000e-02 0.0
7.500000e-02 7.500000e-02 0.0
1.000000e-01 7.500000e-02 0.0
1.250000e-01 7.500000e-02 0.0
1.500000e-01 7.500000e-02 0.0
1.750000e-01 7.500000e-02 0.0
2.000000e-01 7.500000e-02 0.0
2.250000e-01 7.500000e-02 0.0
2.500000e-01 7.500000e-02 0.0
2.750000e-01 7.500000e-02 0.0
3.000000e-01 7.500000e-02 0.0
3.250000e-01 7.500000e-02 0.0
3.500000e-01 7.500000e-02 0.0
3.750000e-01 7.500000e-02 0.0
4.000000e-01 7.500000e-02 0.0
4.250000e-01 7.500000e-02 0.0
4.500000e-01 7.500000e-02 0.0
4.750000e-01 7.500000e-02 0.0
5.000000e-01 7.500000e-02 0.0
5.250000e-01 7.500000e-02 0.0
5.500000e-01 7.500000e-02 0.0
5.750000e-01 7.500000e-02 0.0
6.000000e-01 7.500000e-02 0.0
6.250000e-01 7.500000e-02 0.0
6.500000e-01 7.500000e-02 0.0
6.750000e-01 7.500000e-02 0.0
7.000000e-01 7.500000e-02 0.0
7.250000e-01 7.500000e-02 0.0
7.500000e-01 7.500000e-02 0.0
7.750000e-01 7.500000e-02 0.0
8.000000e-01 7.500000e-02 0.0
8.250000e-01 7.500000e-02 0.0
8.500000e-01 7.500000e-02 0.0
8.750000e-01 7.500000e-02 0.0
9.000000e-01 7.500000e-02 0.0
9.250000e-01 7.500000e-02 0.0
9.500000e-01 7.500000e-02 0.0
9.750000e-01 7.500000e-02 0.0
1.000000e+00 7.500000e-02 0.0
0.000000e+00 1.000000e-01 0.0
2.500000e-02 1.000000e-01 0.0
5.000000e-02 1.000000e-01 0.0
7.500000e-02 1.000000e-01 0.0
1.000000e-01 1.000000e-01 0.0
1.250000e-01 1.000000e-01 0.0
1.500000e-01 1.000000e-01 0.0
1.750000e-01 1.000000e-01 0.0
2.000000e-01 1.000000e-01 0.0
2.250000e-01 1.000000e-01 0.0
2.500000e-01 1.000000e-01 0.0
2.750000e-01 1.000000e-01 0.0
3.000000e-01 1.000000e-01 0.0
3.250000e-01 1.000000e-01 0.0
3.500000e-01 1.000000e-01 0.0
3.750000e-01 1.000000e-01 0.0
4.000000e-01 1.000000e-01 0.0
4.250000e-01 1.000000e-01 0.0
4.500000e-01 1.000000e-01 0.0
4.750000e-01 1.000000e-01 0.0
5.000000e-01 1.000000e-01 0.0
5.250000e-01 1.000000e-01 0.0
5.500000e-01 1.000000e-01 0.0
5.750000e-01 1.000000e-01 0.0
6.000000e-01 1.000000e-01 0.0
6.250000e-01 1.000000e-01 0.0
6.500000e-01 1.000000e-01 0.0
6.750000e-01 1.000000e-01 0.0
7.000000e-01 1.000000e-01 0.0
7.250000e-01 1.000000e-01 0.0
7.500000e-01 1.000000e-01 0.0
7.750000e-01 1.000000e-01 0.0
8.000000e-01 1.000000e-01 0.0
8.250000e-01 1.000000e-01 0.0
8.500000e-01 1.000000e-01 0.0
8.750000e-01 1.000000e-01 0.0
9.000000e-01 1.000000e-01 0.0
9.250000e-01 1.000000e-01 0.0
9.500000e-01 1.000000e-01 0.0
9.750000e-01 1.000000e-01 0.0
1.000000e+00 1.000000e-01 0.0
0.000000e+00 1.250000e-01 0.0
2.500000e-02 1.250000e-01 0.0
5.000000e-02 1.250000e-01 0.0
7.500000e-02 1.250000e-01 0.0
1.000000e-01 1.250000e-01 0.0
1.250000e-01 1.250000e-01 0.0
1.500000e-01 1.250000e-01 0.0
1.750000e-01 1.250000e-01 0.0
2.000000e-01 1.250000e-01 0.0
2.250000e-01 1.250000e-01 0.0
2.500000e-01 1.250000e-01 0.0
2.750000e-01 1.250000e-01 0.0
3.000000e-01 1.250000e-01 0.0
3.250000e-01 1.250000e-01 0.0
3.500000e-01 1.250000e-01 0.0
3.750000e-01 1.250000e-01 0.0
4.000000e-01 1.250000e-01 0.0
4.250000e-01 1.250000e-01 0.0
4.500000e-01 1.250000e-01 0.0
4.750000e-01 1.250000e-01 0.0
5.000000e-01 1.250000e-01 0.0
5.250000e-01 1.250000e-01 0.0
5.500000e-01 1.250000e-01 0.0
5.750000e-01 1.250000e-01 0.0
6.000000e-01 1.250000e-01 0.0
6.250000e-01 1.250000e-01 0.0
6.500000e-01 1.250000e-01 0.0
6.750000e-01 1.250000e-01 0.0
7.000000e-01 1.250000e-01 0.0
7.250000e-01 1.250000e-01 0.0
7.500000e-01 1.250000e-01 0.0
7.750000e-01 1.250000e-01 0.0
8.000000e-01 1.250000e-01 0.0
8.250000e-01 1.250000e-01 0.0
8.500000e-01 1.250000e-01 0.0
8.750000e-01 1.250000e-01 0.0
9.000000e-01 1.250000e-01 0.0
9.250000e-01 1.250000e-01 0.0
9.500000e-01 1.250000e-01 0.0
9.750000e-01 1.250000e-01 0.0
1.000000e+00 1.250000e-01 0.0
0.000000e+00 1.500000e-01 0.0
2.500000e-02 1.500000e-01 0.0
5.000000e-02 1.500000e-01 0.0
7.500000e-02 1.500000e-01 0.0
1.000000e-01 1.500000e-01 0.0
1.250000e-01 1.500000e-01 0.0
1.500000e-01 1.500000e-01 0.0
1.750000e-01 1.500000e-01 0.0
2.000000e-01 1.500000e-01 0.0
2.250000e-01 1.500000e-01 0.0
2.500000e-01 1.500000e-01 0.0
2.750000e-01 1.500000e-01 0.0
3.000000e-01 1.500000e-01 0.0
3.250000e-01 1.500000e-01 0.0
3.500000e-01 1.500000e-01 0.0
3.750000e-01 1.500000e-01 0.0
4.000000e-01 1.500000e-01 0.0
4.250000e-01 1.500000e-01 0.0
4.500000e-01 1.500000e-01 0.0
4.750000e-01 1.500000e-01 0.0
5.000000e-01 1.500000e-01 0.0
5.250000e-01 1.500000e-01 0.0
5.500000e-01 1.500000e-01 0.0
5.750000e-01 1.500000e-01 0.0
6.000000e-01 1.500000e-01 0.0
6.250000e-01 1.500000e-01 0.0
6.500000e-01 1.500000e-01 0.0
6.750000e-01 1.500000e-01 0.0
7.000000e-01 1.500000e-01 0.0
7.250000e-01 1.500000e-01 0.0
7.500000e-01 1.500000e-01 0.0
7.750000e-01 1.500000e-01 0.0
8.000000e-01 1.500000e-01 0.0
8.250000e-01 1.500000e-01 0.0
8.500000e-01 1.500000e-01 0.0
8.750000e-01 1.500000e-01 0.0
9.000000e-01 1.500000e-01 0.0
9.250000e-01 1.500000e-01 0.0
9.500000e-01 1.500000e-01 0.0
9.750000e-01 1.500000e-01 0.0
1.000000e+00 1.500000e-01 0.0
0.000000e+00 1.750000e-01 0.0
2.500000e-02 1.750000e-01 0.0
5.000000e-02 1.750000e-01 0.0
7.500000e-02 1.750000e-01 0.0
1.000000e-01 1.750000e-01 0.0
1.250000e-01 1.750000e-01 0.0
1.500000e-01 1.750000e-01 0.0
1.750000e-01 1.750000e-01 0.0
2.000000e-01 1.750000e-01 0.0
2.250000e-01 1.750000e-01 0.0
2.500000e-01 1.750000e-01 0.0
2.750000e-01 1.750000e-01 0.0
3.000000e-01 1.750000e-01 0.0
3.250000e-01 1.750000e-01 0.0
3.500000e-01 1.750000e-01 0.0
3.750000e-01 1.750000e-01 0.0
4.000000e-01 1.750000e-01 0.0
4.250000e-01 1.750000e-01 0.0
4.500000e-01 1.750000e-01 0.0
4.750000e-01 1.750000e-01 0.0
5.000000e-01 1.750000e-01 0.0
5.250000e-01 1.750000e-01 0.0
5.500000e-01 1.750000e-01 0.0
5.750000e-01 1.750000e-01 0.0
6.000000e-01 1.750000e-01 0.0
6.250000e-01 1.750000e-01 0.0
6.500000e-01 1.750000e-01 0.0
6.750000e-01 1.750000e-01 0.0
7.000000e-01 1.750000e-01 0.0
7.250000e-01 1.750000e-01 0.0
7.500000e-01 1.750000e-01 0.0
7.750000e-01 1.750000e-01 0.0
8.000000e-01 1.750000e-01 0.0
8.250000e-01 1.750000e-01 0.0
8.500000e-01 1.750000e-01 0.0
8.750000e-01 1.750000e-01 0.0
9.000000e-01 1.750000e-01 0.0
9.250000e-01 1.750000e-01 0.0
9.500000e-01 1.750000e-01 0.0
9.750000e-01 1.750000e-01 0.0
1.000000e+00 1.750000e-01 0.0
[...]
CELL_DATA 1600
SCALARS Temperature double 1
LOOKUP_TABLE default
5.000000e-01
2.969723e-01
1.125751e-01
3.928460e-02
1.612212e-02
8.432542e-03
5.051144e-03
3.153134e-03
1.993828e-03
1.274360e-03
8.241509e-04
5.389750e-04
3.558891e-04
2.369144e-04
1.588113e-04
1.070995e-04
7.260963e-05
4.945855e-05
3.383068e-05
2.322828e-05
1.600305e-05
1.105939e-05
7.664519e-06
5.325507e-06
3.709105e-06
2.588986e-06
1.810807e-06
1.268917e-06
8.907521e-07
6.263137e-07
4.410551e-07
3.110414e-07
2.196494e-07
1.553082e-07
1.099458e-07
7.792006e-08
5.527783e-08
3.923561e-08
2.779181e-08
1.933751e-08
7.030277e-01
5.000000e-01
3.151276e-01
1.752627e-01
9.325519e-02
5.088585e-02
2.935894e-02
1.782461e-02
1.119443e-02
7.176281e-03
4.663361e-03
3.062145e-03
2.028396e-03
1.353837e-03
9.095833e-04
6.146433e-04
4.174559e-04
2.848113e-04
1.950993e-04
1.341315e-04
9.251934e-05
6.400766e-05
4.440346e-05
3.088085e-05
2.152598e-05
1.503702e-05
1.052490e-05
7.380246e-06
5.184018e-06
3.647171e-06
2.569777e-06
1.813196e-06
1.281053e-06
9.062120e-07
6.418025e-07
4.550398e-07
3.229378e-07
2.293020e-07
1.624793e-07
1.130964e-07
8.874249e-01
6.848724e-01
5.000000e-01
3.370369e-01
2.129488e-01
1.302977e-01
7.956842e-02
4.936380e-02
3.126929e-02
2.017559e-02
1.320240e-02
8.730892e-03
5.821638e-03
3.908355e-03
2.639309e-03
1.791527e-03
1.221635e-03
8.364369e-04
5.748044e-04
3.963230e-04
2.740875e-04
1.900756e-04
1.321481e-04
9.208861e-05
6.431081e-05
4.500146e-05
3.154807e-05
2.215479e-05
1.558338e-05
1.097768e-05
7.744155e-06
5.470349e-06
3.869014e-06
2.739674e-06
1.942147e-06
1.378222e-06
9.789423e-07
6.956584e-07
4.933150e-07
3.436695e-07
9.607154e-01
8.247373e-01
6.629631e-01
5.000000e-01
3.554167e-01
2.413543e-01
1.594434e-01
1.042026e-01
6.815967e-02
4.488420e-02
2.980398e-02
1.994534e-02
1.343693e-02
9.103170e-03
6.196863e-03
4.236262e-03
2.906900e-03
2.001500e-03
1.382373e-03
9.574656e-04
6.648874e-04
4.628186e-04
3.228734e-04
2.257056e-04
1.580805e-04
1.109133e-04
7.794849e-05
5.486619e-05
3.867527e-05
2.729954e-05
1.929462e-05
1.365352e-05
9.672785e-06
6.860092e-06
4.870288e-06
3.460973e-06
2.461561e-06
1.751439e-06
1.243511e-06
8.674344e-07
9.838779e-01
9.067448e-01
7.870512e-01
6.445833e-01
5.000000e-01
3.698925e-01
2.636883e-01
1.833006e-01
1.256121e-01
8.556563e-02
5.824339e-02
3.972331e-02
2.717375e-02
1.864853e-02
1.283725e-02
8.862118e-03
6.134081e-03
4.256253e-03
2.960056e-03
2.063017e-03
1.440711e-03
1.008017e-03
7.065216e-04
4.960251e-04
3.487865e-04
2.456146e-04
1.732013e-04
1.222973e-04
8.646112e-05
6.119757e-05
4.336412e-05
3.075994e-05
2.184118e-05
1.552319e-05
1.104282e-05
7.862307e-06
5.602020e-06
3.992749e-06
2.839511e-06
1.984298e-06
9.915675e-01
9.491141e-01
8.697023e-01
7.586457e-01
6.301075e-01
5.000000e-01
3.813210e-01
2.816807e-01
2.032431e-01
1.443569e-01
1.015656e-01
7.110368e-02
4.967297e-02
3.468576e-02
2.423084e-02
1.694199e-02
1.185859e-02
8.310332e-03
5.830971e-03
4.096436e-03
2.881454e-03
2.029311e-03
1.430885e-03
1.010101e-03
7.138592e-04
5.050460e-04
3.576864e-04
2.535768e-04
1.799432e-04
1.278095e-04
9.086093e-05
6.464898e-05
4.603646e-05
3.280830e-05
2.339876e-05
1.669981e-05
1.192612e-05
8.518619e-06
6.070861e-06
4.252041e-06
9.949489e-01
9.706411e-01
9.204316e-01
8.405566e-01
7.363117e-01
6.186790e-01
5.000000e-01
3.905018e-01
2.964729e-01
2.201733e-01
1.608776e-01
1.162294e-01
8.334504e-02
5.948020e-02
4.232503e-02
3.006617e-02
2.133794e-02
1.513700e-02
1.073707e-02
7.617133e-03
5.405384e-03
3.837431e-03
2.725639e-03
1.937021e-03
1.377382e-03
9.800283e-04
6.977393e-04
4.970732e-04
3.543399e-04
2.527496e-04
1.803966e-04
1.288337e-04
9.206380e-05
6.582650e-05
4.709325e-05
3.370945e-05
2.414044e-05
1.728861e-05
1.235223e-05
8.675335e-06
9.968469e-01
9.821754e-01
9.506362e-01
8.957974e-01
8.166994e-01
7.183193e-01
6.094982e-01
5.000000e-01
3.980213e-01
3.088508e-01
2.347331e-01
1.755319e-01
1.296632e-01
9.492091e-02
6.903594e-02
4.997576e-02
3.605733e-02
2.595323e-02
1.864878e-02
1.338401e-02
9.597528e-03
6.878449e-03
4.928012e-03
3.529997e-03
2.528445e-03
1.811140e-03
1.297489e-03
9.296824e-04
6.662923e-04
4.776503e-04
3.425172e-04
2.456918e-04
1.762957e-04
1.265436e-04
9.086324e-05
6.526546e-05
4.689194e-05
3.368701e-05
2.414065e-05
1.700963e-05
9.980062e-01
9.888056e-01
9.687307e-01
9.318403e-01
8.743879e-01
7.967569e-01
7.035271e-01
6.019787e-01
5.000000e-01
4.042922e-01
3.193688e-01
2.473958e-01
1.886119e-01
1.419833e-01
1.058272e-01
7.827500e-02
5.755457e-02
4.212650e-02
3.072540e-02
2.234843e-02
1.622053e-02
1.175313e-02
8.504949e-03
6.148152e-03
4.440917e-03
3.205804e-03
2.313146e-03
1.668493e-03
1.203219e-03
8.675612e-04
6.254895e-04
4.509506e-04
3.251225e-04
2.344179e-04
1.690336e-04
1.218991e-04
8.791320e-05
6.338316e-05
4.557855e-05
3.223473e-05
9.987256e-01
9.928237e-01
9.798244e-01
9.551158e-01
9.144344e-01
8.556431e-01
7.798267e-01
6.911492e-01
5.957078e-01
5.000000e-01
4.096061e-01
3.284267e-01
2.585178e-01
2.003561e-01
1.533035e-01
1.160835e-01
8.716193e-02
6.500294e-02
4.821272e-02
3.560149e-02
2.619474e-02
1.921706e-02
1.406425e-02
1.027278e-02
7.491216e-03
5.455473e-03
3.968533e-03
2.884226e-03
2.094598e-03
1.520207e-03
1.102770e-03
7.996311e-04
5.796311e-04
4.200503e-04
3.043429e-04
2.204726e-04
1.596858e-04
1.155978e-04
8.345198e-05
5.926953e-05
9.991758e-01
9.953366e-01
9.867976e-01
9.701960e-01
9.417566e-01
8.984344e-01
8.391224e-01
7.652669e-01
6.806312e-01
5.903939e-01
5.000000e-01
4.141721e-01
3.363184e-01
2.683728e-01
2.109601e-01
1.637299e-01
1.257222e-01
9.568112e-02
7.228112e-02
5.426908e-02
4.053751e-02
3.015126e-02
2.234591e-02
1.651130e-02
1.216909e-02
8.949460e-03
6.569589e-03
4.815039e-03
3.524364e-03
2.576708e-03
1.882021e-03
1.373471e-03
1.001620e-03
7.299946e-04
5.317500e-04
3.871646e-04
2.817641e-04
2.048997e-04
1.485697e-04
1.060157e-04
9.994610e-01
9.969379e-01
9.912691e-01
9.800547e-01
9.602767e-01
9.288963e-01
8.837706e-01
8.244681e-01
7.526042e-01
6.715733e-01
5.858279e-01
5.000000e-01
4.181431e-01
3.432642e-01
2.771734e-01
2.205849e-01
1.733581e-01
1.347816e-01
1.038301e-01
7.936323e-02
6.026013e-02
4.549743e-02
3.418632e-02
2.558173e-02
1.907543e-02
1.418076e-02
1.051443e-02
7.778322e-03
5.742878e-03
4.232799e-03
3.115123e-03
2.289571e-03
1.680874e-03
1.232762e-03
9.033146e-04
6.613882e-04
4.838882e-04
3.536572e-04
2.576766e-04
1.848307e-04
9.996441e-01
9.979716e-01
9.941784e-01
9.865631e-01
9.728263e-01
9.503270e-01
9.166550e-01
8.703368e-01
8.113881e-01
7.414822e-01
6.636816e-01
5.818569e-01
5.000000e-01
4.216333e-01
3.494322e-01
2.850875e-01
2.293634e-01
1.822735e-01
1.433018e-01
1.116147e-01
8.623360e-02
6.615955e-02
5.045214e-02
3.827275e-02
2.890170e-02
2.173889e-02
1.629487e-02
1.217731e-02
9.076118e-03
6.748935e-03
5.008141e-03
3.709606e-03
2.743335e-03
2.025855e-03
1.494116e-03
1.100683e-03
8.099698e-04
5.952464e-04
4.360083e-04
3.145323e-04
9.997631e-01
9.986462e-01
9.960916e-01
9.908968e-01
9.813515e-01
9.653142e-01
9.405198e-01
9.050791e-01
8.580167e-01
7.996439e-01
7.316272e-01
6.567358e-01
5.783667e-01
5.000000e-01
4.247292e-01
3.549526e-01
2.922490e-01
2.374063e-01
1.905512e-01
1.513226e-01
1.190462e-01
9.288404e-02
7.194828e-02
5.537838e-02
4.238755e-02
3.228554e-02
2.448521e-02
1.849890e-02
1.392917e-02
1.045703e-02
7.829585e-03
5.848479e-03
4.359441e-03
3.243388e-03
2.408970e-03
1.786482e-03
1.322941e-03
9.780616e-04
7.205597e-04
5.230247e-04
9.998412e-01
9.990904e-01
9.973607e-01
9.938031e-01
9.871627e-01
9.757692e-01
9.576750e-01
9.309641e-01
8.941728e-01
8.466965e-01
7.890399e-01
7.228266e-01
6.505678e-01
5.752708e-01
5.000000e-01
4.274975e-01
3.599281e-01
2.987660e-01
2.448058e-01
1.982572e-01
1.588822e-01
1.261390e-01
9.931167e-02
7.761293e-02
6.025781e-02
4.651141e-02
3.571544e-02
2.729932e-02
2.078096e-02
1.576119e-02
1.191489e-02
8.980833e-03
6.751480e-03
5.063511e-03
3.789445e-03
2.830453e-03
2.110313e-03
1.570271e-03
1.164079e-03
8.505956e-04
9.998929e-01
9.993854e-01
9.982085e-01
9.957637e-01
9.911379e-01
9.830580e-01
9.699338e-01
9.500242e-01
9.217250e-01
8.839165e-01
8.362701e-01
7.794151e-01
7.149125e-01
6.450474e-01
5.725025e-01
5.000000e-01
4.299908e-01
3.644402e-01
3.047266e-01
2.516397e-01
2.054497e-01
1.660165e-01
1.329091e-01
1.055174e-01
8.314452e-02
6.507614e-02
5.062824e-02
3.917587e-02
3.016761e-02
2.312991e-02
1.766477e-02
1.344347e-02
1.019844e-02
7.714489e-03
5.820349e-03
4.380864e-03
3.290092e-03
2.465120e-03
1.839688e-03
1.353866e-03
9.999274e-01
9.995825e-01
9.987784e-01
9.970931e-01
9.938659e-01
9.881414e-01
9.786621e-01
9.639427e-01
9.424454e-01
9.128381e-01
8.742778e-01
8.266419e-01
7.706366e-01
7.077510e-01
6.400719e-01
5.700092e-01
5.000000e-01
4.322505e-01
3.685549e-01
3.102037e-01
2.579737e-01
2.121793e-01
1.727587e-01
1.393734e-01
1.115050e-01
8.853753e-02
6.982244e-02
5.472479e-02
4.265342e-02
3.307784e-02
2.553541e-02
1.963170e-02
1.503659e-02
1.147801e-02
8.734592e-03
6.628152e-03
5.016481e-03
3.786390e-03
2.845897e-03
2.110268e-03
9.999505e-01
9.997152e-01
9.991636e-01
9.979985e-01
9.957437e-01
9.916897e-01
9.848630e-01
9.740468e-01
9.578735e-01
9.349971e-01
9.043189e-01
8.652184e-01
8.177265e-01
7.625937e-01
7.012340e-01
6.355598e-01
5.677495e-01
5.000000e-01
4.343103e-01
3.723260e-01
3.152573e-01
2.638638e-01
2.184909e-01
1.791394e-01
1.455487e-01
1.172797e-01
9.378901e-02
7.448852e-02
5.879021e-02
4.613654e-02
3.601911e-02
2.798795e-02
2.165418e-02
1.668821e-02
1.281510e-02
9.808627e-03
7.484539e-03
5.693427e-03
4.311598e-03
3.222787e-03
9.999662e-01
9.998049e-01
9.994252e-01
9.986176e-01
9.970399e-01
9.941690e-01
9.892629e-01
9.813512e-01
9.692746e-01
9.517873e-01
9.277189e-01
8.961699e-01
8.566982e-01
8.094488e-01
7.551942e-01
6.952734e-01
6.314451e-01
5.656897e-01
5.000000e-01
4.361972e-01
3.757977e-01
3.199383e-01
2.693577e-01
2.244235e-01
1.851866e-01
1.514515e-01
1.228483e-01
9.889805e-02
7.906841e-02
6.281569e-02
4.961540e-02
3.898178e-02
3.047885e-02
2.372490e-02
1.839244e-02
1.420514e-02
1.093283e-02
8.384945e-03
6.400438e-03
4.824549e-03
9.999768e-01
9.998659e-01
9.996037e-01
9.990425e-01
9.979370e-01
9.959036e-01
9.923829e-01
9.866160e-01
9.776516e-01
9.643985e-01
9.457309e-01
9.206368e-01
8.883853e-01
8.486774e-01
8.017428e-01
7.483603e-01
6.897963e-01
6.276740e-01
5.638028e-01
5.000000e-01
4.379339e-01
3.790070e-01
3.242891e-01
2.744967e-01
2.300119e-01
1.909258e-01
1.570979e-01
1.282180e-01
1.038652e-01
8.355791e-02
6.679420e-02
5.308165e-02
4.195735e-02
3.300022e-02
2.583696e-02
2.014350e-02
1.564295e-02
1.210069e-02
9.313842e-03
7.082668e-03
9.999840e-01
9.999075e-01
9.997259e-01
9.993351e-01
9.985593e-01
9.971185e-01
9.945946e-01
9.904025e-01
9.837795e-01
9.738053e-01
9.594625e-01
9.397399e-01
9.137664e-01
8.809538e-01
8.411178e-01
7.945503e-01
7.420263e-01
6.847427e-01
6.242023e-01
5.620661e-01
5.000000e-01
4.395388e-01
3.819846e-01
3.283460e-01
2.793164e-01
2.352866e-01
1.963802e-01
1.625030e-01
1.333968e-01
1.086923e-01
8.795431e-02
7.072016e-02
5.652823e-02
4.493835e-02
3.554488e-02
2.798379e-02
2.193500e-02
1.712001e-02
1.329181e-02
1.020063e-02
9.999889e-01
9.999360e-01
9.998099e-01
9.995372e-01
9.989920e-01
9.979707e-01
9.961626e-01
9.931216e-01
9.882469e-01
9.807829e-01
9.698487e-01
9.545026e-01
9.338404e-01
9.071160e-01
8.738610e-01
8.339835e-01
7.878207e-01
7.361362e-01
6.800617e-01
6.209930e-01
5.604612e-01
5.000000e-01
4.410275e-01
3.847568e-01
3.321401e-01
2.838476e-01
2.402747e-01
2.015710e-01
1.676812e-01
1.383926e-01
1.133818e-01
9.225604e-02
7.458923e-02
5.994924e-02
4.791820e-02
3.810609e-02
3.015818e-02
2.375648e-02
1.861067e-02
1.441848e-02
9.999923e-01
9.999556e-01
9.998679e-01
9.996771e-01
9.992935e-01
9.985691e-01
9.972744e-01
9.950720e-01
9.914951e-01
9.859358e-01
9.776541e-01
9.658137e-01
9.495479e-01
9.280517e-01
9.006883e-01
8.670909e-01
8.272413e-01
7.815091e-01
7.306423e-01
6.757109e-01
6.180154e-01
5.589725e-01
5.000000e-01
4.424133e-01
3.873457e-01
3.356980e-01
2.881173e-01
2.450004e-01
2.065173e-01
1.726460e-01
1.432134e-01
1.179368e-01
9.646244e-02
7.839809e-02
6.333964e-02
5.089083e-02
4.067643e-02
3.234807e-02
2.557709e-02
2.000992e-02
9.999947e-01
9.999691e-01
9.999079e-01
9.997743e-01
9.995040e-01
9.989899e-01
9.980630e-01
9.964700e-01
9.938518e-01
9.897272e-01
9.834887e-01
9.744183e-01
9.617273e-01
9.446216e-01
9.223871e-01
8.944826e-01
8.606266e-01
8.208606e-01
7.755765e-01
7.255033e-01
6.716540e-01
6.152432e-01
5.575867e-01
5.000000e-01
4.437072e-01
3.897704e-01
3.390429e-01
2.921492e-01
2.494851e-01
2.112368e-01
1.774102e-01
1.478670e-01
1.223609e-01
1.005736e-01
8.214417e-02
6.669487e-02
5.384927e-02
4.324278e-02
3.451795e-02
2.727602e-02
9.999963e-01
9.999785e-01
9.999357e-01
9.998419e-01
9.996512e-01
9.992861e-01
9.986226e-01
9.974716e-01
9.955591e-01
9.925088e-01
9.878309e-01
9.809246e-01
9.710983e-01
9.576124e-01
9.397422e-01
9.168555e-01
8.884950e-01
8.544513e-01
8.148134e-01
7.699881e-01
7.206836e-01
6.678599e-01
6.126543e-01
5.562928e-01
5.000000e-01
4.449190e-01
3.920473e-01
3.421949e-01
2.959641e-01
2.537479e-01
2.157452e-01
1.819856e-01
1.523610e-01
1.266580e-01
1.045900e-01
8.582512e-02
7.000920e-02
5.678016e-02
4.576613e-02
3.653484e-02
9.999974e-01
9.999850e-01
9.999550e-01
9.998891e-01
9.997544e-01
9.994950e-01
9.990200e-01
9.981889e-01
9.967942e-01
9.945445e-01
9.910505e-01
9.858192e-01
9.782611e-01
9.677145e-01
9.534886e-01
9.349239e-01
9.114625e-01
8.827203e-01
8.485485e-01
8.090742e-01
7.647134e-01
7.161524e-01
6.643020e-01
6.102296e-01
5.550810e-01
5.000000e-01
4.460567e-01
3.941906e-01
3.451716e-01
2.995804e-01
2.578060e-01
2.200570e-01
1.863833e-01
1.567029e-01
1.308318e-01
1.085120e-01
8.943714e-02
7.326987e-02
5.964273e-02
4.810747e-02
9.999982e-01
9.999895e-01
9.999685e-01
9.999221e-01
9.998268e-01
9.996423e-01
9.993023e-01
9.987025e-01
9.976869e-01
9.960315e-01
9.934304e-01
9.894856e-01
9.837051e-01
9.755148e-01
9.642846e-01
9.493718e-01
9.301776e-01
9.062110e-01
8.771517e-01
8.429021e-01
8.036198e-01
7.597253e-01
7.118827e-01
6.609571e-01
6.079527e-01
5.539433e-01
5.000000e-01
4.471276e-01
3.962128e-01
3.479884e-01
3.030145e-01
2.616749e-01
2.241856e-01
1.906134e-01
1.608996e-01
1.348856e-01
1.123382e-01
9.296899e-02
7.643686e-02
6.230082e-02
9.999987e-01
9.999926e-01
9.999778e-01
9.999451e-01
9.998777e-01
9.997464e-01
9.995029e-01
9.990703e-01
9.983315e-01
9.971158e-01
9.951850e-01
9.922217e-01
9.878227e-01
9.815011e-01
9.727007e-01
9.608241e-01
9.452752e-01
9.255115e-01
9.011019e-01
8.717820e-01
8.374970e-01
7.984290e-01
7.549996e-01
7.078508e-01
6.578051e-01
6.058094e-01
5.528724e-01
5.000000e-01
4.481379e-01
3.981247e-01
3.506589e-01
3.062809e-01
2.653683e-01
2.281428e-01
1.946854e-01
1.649570e-01
1.388206e-01
1.160599e-01
9.638449e-02
7.938832e-02
9.999991e-01
9.999948e-01
9.999844e-01
9.999613e-01
9.999135e-01
9.998201e-01
9.996457e-01
9.993337e-01
9.987968e-01
9.979054e-01
9.964756e-01
9.942571e-01
9.909239e-01
9.860708e-01
9.792190e-01
9.698324e-01
9.573466e-01
9.412098e-01
9.209316e-01
8.961348e-01
8.666032e-01
8.323188e-01
7.934827e-01
7.505149e-01
7.040359e-01
6.548284e-01
6.037872e-01
5.518621e-01
5.000000e-01
4.490931e-01
3.999359e-01
3.531953e-01
3.093926e-01
2.688989e-01
2.319396e-01
1.986073e-01
1.688788e-01
1.426313e-01
1.196483e-01
9.958998e-02
9.999994e-01
9.999964e-01
9.999890e-01
9.999727e-01
9.999388e-01
9.998722e-01
9.997473e-01
9.995223e-01
9.991324e-01
9.984798e-01
9.974233e-01
9.957672e-01
9.932511e-01
9.895430e-01
9.842388e-01
9.768701e-01
9.669222e-01
9.538635e-01
9.371843e-01
9.164421e-01
8.913077e-01
8.616074e-01
8.273540e-01
7.887632e-01
7.462521e-01
7.004196e-01
6.520116e-01
6.018753e-01
5.509069e-01
5.000000e-01
4.499979e-01
4.016549e-01
3.556082e-01
3.123612e-01
2.722777e-01
2.355853e-01
2.023851e-01
1.726637e-01
1.463004e-01
1.230536e-01
9.999996e-01
9.999974e-01
9.999923e-01
9.999807e-01
9.999566e-01
9.999091e-01
9.998196e-01
9.996575e-01
9.993745e-01
9.988972e-01
9.981180e-01
9.968849e-01
9.949919e-01
9.921704e-01
9.880851e-01
9.823352e-01
9.744646e-01
9.639809e-01
9.503846e-01
9.332058e-01
9.120457e-01
8.866182e-01
8.567866e-01
8.225898e-01
7.842548e-01
7.421940e-01
6.969855e-01
6.493411e-01
6.000641e-01
5.500021e-01
5.000000e-01
4.508565e-01
4.032890e-01
3.579072e-01
3.151969e-01
2.755145e-01
2.390875e-01
2.060219e-01
1.763099e-01
1.498387e-01
9.999997e-01
9.999982e-01
9.999945e-01
9.999863e-01
9.999692e-01
9.999354e-01
9.998712e-01
9.997543e-01
9.995490e-01
9.992004e-01
9.986265e-01
9.977104e-01
9.962904e-01
9.941515e-01
9.910192e-01
9.865565e-01
9.803683e-01
9.720121e-01
9.610182e-01
9.469184e-01
9.292798e-01
9.077440e-01
8.820632e-01
8.521330e-01
8.180144e-01
7.799430e-01
7.383251e-01
6.937191e-01
6.468047e-01
5.983451e-01
5.491435e-01
5.000000e-01
4.516728e-01
4.048451e-01
3.601007e-01
3.179089e-01
2.786178e-01
2.424547e-01
2.095361e-01
1.799052e-01
9.999998e-01
9.999987e-01
9.999961e-01
9.999903e-01
9.999782e-01
9.999540e-01
9.999079e-01
9.998237e-01
9.996749e-01
9.994204e-01
9.989984e-01
9.983191e-01
9.972567e-01
9.956406e-01
9.932485e-01
9.898016e-01
9.849634e-01
9.783458e-01
9.695212e-01
9.580427e-01
9.434718e-01
9.254108e-01
9.035376e-01
8.776391e-01
8.476390e-01
8.136167e-01
7.758144e-01
7.346317e-01
6.906074e-01
6.443918e-01
5.967110e-01
5.483272e-01
5.000000e-01
4.524500e-01
4.063289e-01
3.621964e-01
3.205064e-01
2.816021e-01
2.457289e-01
2.131077e-01
9.999998e-01
9.999991e-01
9.999973e-01
9.999931e-01
9.999845e-01
9.999672e-01
9.999342e-01
9.998735e-01
9.997656e-01
9.995799e-01
9.992700e-01
9.987672e-01
9.979741e-01
9.967566e-01
9.949365e-01
9.922855e-01
9.885220e-01
9.833118e-01
9.762751e-01
9.669998e-01
9.550616e-01
9.400508e-01
9.216019e-01
8.994264e-01
8.733420e-01
8.432971e-01
8.093866e-01
7.718572e-01
7.311011e-01
6.876388e-01
6.420928e-01
5.951549e-01
5.475500e-01
5.000000e-01
4.531912e-01
4.077461e-01
3.642036e-01
3.230098e-01
2.845365e-01
2.491959e-01
9.999999e-01
9.999994e-01
9.999981e-01
9.999951e-01
9.999890e-01
9.999766e-01
9.999529e-01
9.999091e-01
9.998310e-01
9.996957e-01
9.994682e-01
9.990967e-01
9.985059e-01
9.975910e-01
9.962106e-01
9.941797e-01
9.912654e-01
9.871849e-01
9.816076e-01
9.741630e-01
9.644551e-01
9.520818e-01
9.366604e-01
9.178558e-01
8.954100e-01
8.691682e-01
8.391004e-01
8.053146e-01
7.680604e-01
7.277223e-01
6.848031e-01
6.398993e-01
5.936711e-01
5.468088e-01
5.000000e-01
4.538996e-01
4.091058e-01
3.661490e-01
3.255179e-01
2.878215e-01
9.999999e-01
9.999995e-01
9.999986e-01
9.999965e-01
9.999921e-01
9.999833e-01
9.999663e-01
9.999347e-01
9.998781e-01
9.997795e-01
9.996128e-01
9.993386e-01
9.988993e-01
9.982135e-01
9.971695e-01
9.956191e-01
9.933718e-01
9.901914e-01
9.857949e-01
9.798565e-01
9.720162e-01
9.618939e-01
9.491092e-01
9.333051e-01
9.141749e-01
8.914880e-01
8.651144e-01
8.350430e-01
8.013927e-01
7.644147e-01
7.244855e-01
6.820911e-01
6.378036e-01
5.922539e-01
5.461004e-01
5.000000e-01
4.545824e-01
4.104393e-01
3.681607e-01
3.285494e-01
9.999999e-01
9.999997e-01
9.999990e-01
9.999975e-01
9.999944e-01
9.999881e-01
9.999759e-01
9.999531e-01
9.999121e-01
9.998403e-01
9.997182e-01
9.995161e-01
9.991900e-01
9.986771e-01
9.978897e-01
9.967099e-01
9.949835e-01
9.925155e-01
9.890672e-01
9.843570e-01
9.780650e-01
9.698418e-01
9.593236e-01
9.461507e-01
9.299908e-01
9.105629e-01
8.876618e-01
8.611794e-01
8.311212e-01
7.976149e-01
7.609125e-01
7.213822e-01
6.794936e-01
6.357964e-01
5.908942e-01
5.454176e-01
5.000000e-01
4.552692e-01
4.118967e-01
3.708674e-01
1.000000e+00
9.999998e-01
9.999993e-01
9.999982e-01
9.999960e-01
9.999915e-01
9.999827e-01
9.999663e-01
9.999366e-01
9.998844e-01
9.997951e-01
9.996463e-01
9.994048e-01
9.990219e-01
9.984297e-01
9.975349e-01
9.962136e-01
9.943066e-01
9.916151e-01
9.878993e-01
9.828800e-01
9.762435e-01
9.676519e-01
9.567572e-01
9.432198e-01
9.267301e-01
9.070310e-01
8.839401e-01
8.573687e-01
8.273363e-01
7.939781e-01
7.575453e-01
7.183979e-01
6.769902e-01
6.338510e-01
5.895607e-01
5.447308e-01
5.000000e-01
4.560988e-01
4.141757e-01
1.000000e+00
9.999998e-01
9.999995e-01
9.999988e-01
9.999972e-01
9.999939e-01
9.999876e-01
9.999759e-01
9.999544e-01
9.999165e-01
9.998514e-01
9.997423e-01
9.995640e-01