# vtk DataFile Version 3.0
9.SOU_1Pe = 100,Grid 81x81,022093.vtk
ASCII
DATASET STRUCTURED_GRID
DIMENSIONS 81 81 1
POINTS 6561 double
0.000000e+00 0.000000e+00 0.0
1.250000e-02 0.000000e+00 0.0
2.500000e-02 0.000000e+00 0.0
3.750000e-02 0.000000e+00 0.0
5.000000e-02 0.000000e+00 0.0
6.250000e-02 0.000000e+00 0.0
7.500000e-02 0.000000e+00 0.0
8.750000e-02 0.000000e+00 0.0
1.000000e-01 0.000000e+00 0.0
1.125000e-01 0.000000e+00 0.0
1.250000e-01 0.000000e+00 0.0
1.375000e-01 0.000000e+00 0.0
1.500000e-01 0.000000e+00 0.0
1.625000e-01 0.000000e+00 0.0
1.750000e-01 0.000000e+00 0.0
1.875000e-01 0.000000e+00 0.0
2.000000e-01 0.000000e+00 0.0
2.125000e-01 0.000000e+00 0.0
2.250000e-01 0.000000e+00 0.0
2.375000e-01 0.000000e+00 0.0
2.500000e-01 0.000000e+00 0.0
2.625000e-01 0.000000e+00 0.0
2.750000e-01 0.000000e+00 0.0
2.875000e-01 0.000000e+00 0.0
3.000000e-01 0.000000e+00 0.0
3.125000e-01 0.000000e+00 0.0
3.250000e-01 0.000000e+00 0.0
3.375000e-01 0.000000e+00 0.0
3.500000e-01 0.000000e+00 0.0
3.625000e-01 0.000000e+00 0.0
3.750000e-01 0.000000e+00 0.0
3.875000e-01 0.000000e+00 0.0
4.000000e-01 0.000000e+00 0.0
4.125000e-01 0.000000e+00 0.0
4.250000e-01 0.000000e+00 0.0
4.375000e-01 0.000000e+00 0.0
4.500000e-01 0.000000e+00 0.0
4.625000e-01 0.000000e+00 0.0
4.750000e-01 0.000000e+00 0.0
4.875000e-01 0.000000e+00 0.0
5.000000e-01 0.000000e+00 0.0
5.125000e-01 0.000000e+00 0.0
5.250000e-01 0.000000e+00 0.0
5.375000e-01 0.000000e+00 0.0
5.500000e-01 0.000000e+00 0.0
5.625000e-01 0.000000e+00 0.0
5.750000e-01 0.000000e+00 0.0
5.875000e-01 0.000000e+00 0.0
6.000000e-01 0.000000e+00 0.0
6.125000e-01 0.000000e+00 0.0
6.250000e-01 0.000000e+00 0.0
6.375000e-01 0.000000e+00 0.0
6.500000e-01 0.000000e+00 0.0
6.625000e-01 0.000000e+00 0.0
6.750000e-01 0.000000e+00 0.0
6.875000e-01 0.000000e+00 0.0
7.000000e-01 0.000000e+00 0.0
7.125000e-01 0.000000e+00 0.0
7.250000e-01 0.000000e+00 0.0
7.375000e-01 0.000000e+00 0.0
7.500000e-01 0.000000e+00 0.0
7.625000e-01 0.000000e+00 0.0
7.750000e-01 0.000000e+00 0.0
7.875000e-01 0.000000e+00 0.0
8.000000e-01 0.000000e+00 0.0
8.125000e-01 0.000000e+00 0.0
8.250000e-01 0.000000e+00 0.0
8.375000e-01 0.000000e+00 0.0
8.500000e-01 0.000000e+00 0.0
8.625000e-01 0.000000e+00 0.0
8.750000e-01 0.000000e+00 0.0
8.875000e-01 0.000000e+00 0.0
9.000000e-01 0.000000e+00 0.0
9.125000e-01 0.000000e+00 0.0
9.250000e-01 0.000000e+00 0.0
9.375000e-01 0.000000e+00 0.0
9.500000e-01 0.000000e+00 0.0
9.625000e-01 0.000000e+00 0.0
9.750000e-01 0.000000e+00 0.0
9.875000e-01 0.000000e+00 0.0
1.000000e+00 0.000000e+00 0.0
0.000000e+00 1.250000e-02 0.0
1.250000e-02 1.250000e-02 0.0
2.500000e-02 1.250000e-02 0.0
3.750000e-02 1.250000e-02 0.0
5.000000e-02 1.250000e-02 0.0
6.250000e-02 1.250000e-02 0.0
7.500000e-02 1.250000e-02 0.0
8.750000e-02 1.250000e-02 0.0
1.000000e-01 1.250000e-02 0.0
1.125000e-01 1.250000e-02 0.0
1.250000e-01 1.250000e-02 0.0
1.375000e-01 1.250000e-02 0.0
1.500000e-01 1.250000e-02 0.0
1.625000e-01 1.250000e-02 0.0
1.750000e-01 1.250000e-02 0.0
1.875000e-01 1.250000e-02 0.0
2.000000e-01 1.250000e-02 0.0
2.125000e-01 1.250000e-02 0.0
2.250000e-01 1.250000e-02 0.0
2.375000e-01 1.250000e-02 0.0
2.500000e-01 1.250000e-02 0.0
2.625000e-01 1.250000e-02 0.0
2.750000e-01 1.250000e-02 0.0
2.875000e-01 1.250000e-02 0.0
3.000000e-01 1.250000e-02 0.0
3.125000e-01 1.250000e-02 0.0
3.250000e-01 1.250000e-02 0.0
3.375000e-01 1.250000e-02 0.0
3.500000e-01 1.250000e-02 0.0
3.625000e-01 1.250000e-02 0.0
3.750000e-01 1.250000e-02 0.0
3.875000e-01 1.250000e-02 0.0
4.000000e-01 1.250000e-02 0.0
4.125000e-01 1.250000e-02 0.0
4.250000e-01 1.250000e-02 0.0
4.375000e-01 1.250000e-02 0.0
4.500000e-01 1.250000e-02 0.0
4.625000e-01 1.250000e-02 0.0
4.750000e-01 1.250000e-02 0.0
4.875000e-01 1.250000e-02 0.0
5.000000e-01 1.250000e-02 0.0
5.125000e-01 1.250000e-02 0.0
5.250000e-01 1.250000e-02 0.0
5.375000e-01 1.250000e-02 0.0
5.500000e-01 1.250000e-02 0.0
5.625000e-01 1.250000e-02 0.0
5.750000e-01 1.250000e-02 0.0
5.875000e-01 1.250000e-02 0.0
6.000000e-01 1.250000e-02 0.0
6.125000e-01 1.250000e-02 0.0
6.250000e-01 1.250000e-02 0.0
6.375000e-01 1.250000e-02 0.0
6.500000e-01 1.250000e-02 0.0
6.625000e-01 1.250000e-02 0.0
6.750000e-01 1.250000e-02 0.0
6.875000e-01 1.250000e-02 0.0
7.000000e-01 1.250000e-02 0.0
7.125000e-01 1.250000e-02 0.0
7.250000e-01 1.250000e-02 0.0
7.375000e-01 1.250000e-02 0.0
7.500000e-01 1.250000e-02 0.0
7.625000e-01 1.250000e-02 0.0
7.750000e-01 1.250000e-02 0.0
7.875000e-01 1.250000e-02 0.0
8.000000e-01 1.250000e-02 0.0
8.125000e-01 1.250000e-02 0.0
8.250000e-01 1.250000e-02 0.0
8.375000e-01 1.250000e-02 0.0
8.500000e-01 1.250000e-02 0.0
8.625000e-01 1.250000e-02 0.0
8.750000e-01 1.250000e-02 0.0
8.875000e-01 1.250000e-02 0.0
9.000000e-01 1.250000e-02 0.0
9.125000e-01 1.250000e-02 0.0
9.250000e-01 1.250000e-02 0.0
9.375000e-01 1.250000e-02 0.0
9.500000e-01 1.250000e-02 0.0
9.625000e-01 1.250000e-02 0.0
9.750000e-01 1.250000e-02 0.0
9.875000e-01 1.250000e-02 0.0
1.000000e+00 1.250000e-02 0.0
0.000000e+00 2.500000e-02 0.0
1.250000e-02 2.500000e-02 0.0
2.500000e-02 2.500000e-02 0.0
3.750000e-02 2.500000e-02 0.0
5.000000e-02 2.500000e-02 0.0
6.250000e-02 2.500000e-02 0.0
7.500000e-02 2.500000e-02 0.0
8.750000e-02 2.500000e-02 0.0
1.000000e-01 2.500000e-02 0.0
1.125000e-01 2.500000e-02 0.0
1.250000e-01 2.500000e-02 0.0
1.375000e-01 2.500000e-02 0.0
1.500000e-01 2.500000e-02 0.0
1.625000e-01 2.500000e-02 0.0
1.750000e-01 2.500000e-02 0.0
1.875000e-01 2.500000e-02 0.0
2.000000e-01 2.500000e-02 0.0
2.125000e-01 2.500000e-02 0.0
2.250000e-01 2.500000e-02 0.0
2.375000e-01 2.500000e-02 0.0
2.500000e-01 2.500000e-02 0.0
2.625000e-01 2.500000e-02 0.0
2.750000e-01 2.500000e-02 0.0
2.875000e-01 2.500000e-02 0.0
3.000000e-01 2.500000e-02 0.0
3.125000e-01 2.500000e-02 0.0
3.250000e-01 2.500000e-02 0.0
3.375000e-01 2.500000e-02 0.0
3.500000e-01 2.500000e-02 0.0
3.625000e-01 2.500000e-02 0.0
3.750000e-01 2.500000e-02 0.0
3.875000e-01 2.500000e-02 0.0
4.000000e-01 2.500000e-02 0.0
4.125000e-01 2.500000e-02 0.0
4.250000e-01 2.500000e-02 0.0
4.375000e-01 2.500000e-02 0.0
4.500000e-01 2.500000e-02 0.0
4.625000e-01 2.500000e-02 0.0
4.750000e-01 2.500000e-02 0.0
4.875000e-01 2.500000e-02 0.0
5.000000e-01 2.500000e-02 0.0
5.125000e-01 2.500000e-02 0.0
5.250000e-01 2.500000e-02 0.0
5.375000e-01 2.500000e-02 0.0
5.500000e-01 2.500000e-02 0.0
5.625000e-01 2.500000e-02 0.0
5.750000e-01 2.500000e-02 0.0
5.875000e-01 2.500000e-02 0.0
6.000000e-01 2.500000e-02 0.0
6.125000e-01 2.500000e-02 0.0
6.250000e-01 2.500000e-02 0.0
6.375000e-01 2.500000e-02 0.0
6.500000e-01 2.500000e-02 0.0
6.625000e-01 2.500000e-02 0.0
6.750000e-01 2.500000e-02 0.0
6.875000e-01 2.500000e-02 0.0
7.000000e-01 2.500000e-02 0.0
7.125000e-01 2.500000e-02 0.0
7.250000e-01 2.500000e-02 0.0
7.375000e-01 2.500000e-02 0.0
7.500000e-01 2.500000e-02 0.0
7.625000e-01 2.500000e-02 0.0
7.750000e-01 2.500000e-02 0.0
7.875000e-01 2.500000e-02 0.0
8.000000e-01 2.500000e-02 0.0
8.125000e-01 2.500000e-02 0.0
8.250000e-01 2.500000e-02 0.0
8.375000e-01 2.500000e-02 0.0
8.500000e-01 2.500000e-02 0.0
8.625000e-01 2.500000e-02 0.0
8.750000e-01 2.500000e-02 0.0
8.875000e-01 2.500000e-02 0.0
9.000000e-01 2.500000e-02 0.0
9.125000e-01 2.500000e-02 0.0
9.250000e-01 2.500000e-02 0.0
9.375000e-01 2.500000e-02 0.0
9.500000e-01 2.500000e-02 0.0
9.625000e-01 2.500000e-02 0.0
9.750000e-01 2.500000e-02 0.0
9.875000e-01 2.500000e-02 0.0
1.000000e+00 2.500000e-02 0.0
0.000000e+00 3.750000e-02 0.0
1.250000e-02 3.750000e-02 0.0
2.500000e-02 3.750000e-02 0.0
3.750000e-02 3.750000e-02 0.0
5.000000e-02 3.750000e-02 0.0
6.250000e-02 3.750000e-02 0.0
7.500000e-02 3.750000e-02 0.0
8.750000e-02 3.750000e-02 0.0
1.000000e-01 3.750000e-02 0.0
1.125000e-01 3.750000e-02 0.0
1.250000e-01 3.750000e-02 0.0
1.375000e-01 3.750000e-02 0.0
1.500000e-01 3.750000e-02 0.0
1.625000e-01 3.750000e-02 0.0
1.750000e-01 3.750000e-02 0.0
1.875000e-01 3.750000e-02 0.0
2.000000e-01 3.750000e-02 0.0
2.125000e-01 3.750000e-02 0.0
2.250000e-01 3.750000e-02 0.0
2.375000e-01 3.750000e-02 0.0
2.500000e-01 3.750000e-02 0.0
2.625000e-01 3.750000e-02 0.0
2.750000e-01 3.750000e-02 0.0
2.875000e-01 3.750000e-02 0.0
3.000000e-01 3.750000e-02 0.0
3.125000e-01 3.750000e-02 0.0
3.250000e-01 3.750000e-02 0.0
3.375000e-01 3.750000e-02 0.0
3.500000e-01 3.750000e-02 0.0
3.625000e-01 3.750000e-02 0.0
3.750000e-01 3.750000e-02 0.0
3.875000e-01 3.750000e-02 0.0
4.000000e-01 3.750000e-02 0.0
4.125000e-01 3.750000e-02 0.0
4.250000e-01 3.750000e-02 0.0
4.375000e-01 3.750000e-02 0.0
4.500000e-01 3.750000e-02 0.0
4.625000e-01 3.750000e-02 0.0
4.750000e-01 3.750000e-02 0.0
4.875000e-01 3.750000e-02 0.0
5.000000e-01 3.750000e-02 0.0
5.125000e-01 3.750000e-02 0.0
5.250000e-01 3.750000e-02 0.0
5.375000e-01 3.750000e-02 0.0
5.500000e-01 3.750000e-02 0.0
5.625000e-01 3.750000e-02 0.0
5.750000e-01 3.750000e-02 0.0
5.875000e-01 3.750000e-02 0.0
6.000000e-01 3.750000e-02 0.0
6.125000e-01 3.750000e-02 0.0
6.250000e-01 3.750000e-02 0.0
6.375000e-01 3.750000e-02 0.0
6.500000e-01 3.750000e-02 0.0
6.625000e-01 3.750000e-02 0.0
6.750000e-01 3.750000e-02 0.0
6.875000e-01 3.750000e-02 0.0
7.000000e-01 3.750000e-02 0.0
7.125000e-01 3.750000e-02 0.0
7.250000e-01 3.750000e-02 0.0
7.375000e-01 3.750000e-02 0.0
7.500000e-01 3.750000e-02 0.0
7.625000e-01 3.750000e-02 0.0
7.750000e-01 3.750000e-02 0.0
7.875000e-01 3.750000e-02 0.0
8.000000e-01 3.750000e-02 0.0
8.125000e-01 3.750000e-02 0.0
8.250000e-01 3.750000e-02 0.0
8.375000e-01 3.750000e-02 0.0
8.500000e-01 3.750000e-02 0.0
8.625000e-01 3.750000e-02 0.0
8.750000e-01 3.750000e-02 0.0
8.875000e-01 3.750000e-02 0.0
9.000000e-01 3.750000e-02 0.0
9.125000e-01 3.750000e-02 0.0
9.250000e-01 3.750000e-02 0.0
9.375000e-01 3.750000e-02 0.0
9.500000e-01 3.750000e-02 0.0
9.625000e-01 3.750000e-02 0.0
9.750000e-01 3.750000e-02 0.0
9.875000e-01 3.750000e-02 0.0
1.000000e+00 3.750000e-02 0.0
0.000000e+00 5.000000e-02 0.0
1.250000e-02 5.000000e-02 0.0
2.500000e-02 5.000000e-02 0.0
3.750000e-02 5.000000e-02 0.0
[...]
CELL_DATA 6400
SCALARS Temperature double 1
LOOKUP_TABLE default
5.000000e-01
2.739047e-01
1.120186e-01
5.107699e-02
2.890826e-02
1.879738e-02
1.297378e-02
9.214410e-03
6.672779e-03
4.907926e-03
3.656258e-03
2.752712e-03
2.090835e-03
1.600054e-03
1.232400e-03
9.545699e-04
7.430336e-04
5.809123e-04
4.559433e-04
3.591184e-04
2.837558e-04
2.248570e-04
1.786543e-04
1.422888e-04
1.135782e-04
9.084727e-05
7.280417e-05
5.844800e-05
4.700019e-05
3.785289e-05
3.052990e-05
2.465700e-05
1.993923e-05
1.614350e-05
1.308517e-05
1.061760e-05
8.624102e-06
7.011637e-06
5.705870e-06
4.647312e-06
3.788273e-06
3.090463e-06
2.523091e-06
2.061365e-06
1.685295e-06
1.378743e-06
1.128666e-06
9.245075e-07
7.577193e-07
6.213684e-07
5.098279e-07
4.185264e-07
3.437468e-07
2.824641e-07
2.322144e-07
1.909894e-07
1.571510e-07
1.293618e-07
1.065297e-07
8.776163e-08
7.232741e-08
5.962937e-08
4.917808e-08
4.057256e-08
3.348406e-08
2.764295e-08
2.282796e-08
1.885744e-08
1.558214e-08
1.287944e-08
1.064852e-08
8.806472e-09
7.285106e-09
6.028365e-09
4.990280e-09
4.133457e-09
3.428266e-09
2.853215e-09
2.397875e-09
2.071746e-09
7.260953e-01
5.000000e-01
3.184225e-01
1.954966e-01
1.233108e-01
8.172628e-02
5.653908e-02
4.030384e-02
2.932915e-02
2.167003e-02
1.620453e-02
1.223784e-02
9.319303e-03
7.147381e-03
5.515420e-03
4.279002e-03
3.335521e-03
2.611044e-03
2.051648e-03
1.617587e-03
1.279291e-03
1.014586e-03
8.067180e-04
6.429498e-04
5.135406e-04
4.110020e-04
3.295502e-04
2.646983e-04
2.129522e-04
1.715810e-04
1.384430e-04
1.118536e-04
9.048409e-05
7.328359e-05
5.941896e-05
4.822820e-05
3.918417e-05
3.186631e-05
2.593845e-05
2.113139e-05
1.722926e-05
1.405864e-05
1.148002e-05
9.381030e-06
7.671030e-06
6.276819e-06
5.139214e-06
4.210308e-06
3.451286e-06
2.830663e-06
2.322878e-06
1.907159e-06
1.566613e-06
1.287488e-06
1.058580e-06
8.707567e-07
7.165651e-07
5.899212e-07
4.858543e-07
4.003005e-07
3.299354e-07
2.720378e-07
2.243791e-07
1.851329e-07
1.528018e-07
1.261574e-07
1.041916e-07
8.607635e-08
7.113167e-08
5.879856e-08
4.861741e-08
4.021023e-08
3.326607e-08
2.752932e-08
2.279031e-08
1.887850e-08
1.565874e-08
1.303299e-08
1.095374e-08
9.464446e-09
8.879814e-01
6.815775e-01
5.000000e-01
3.527732e-01
2.453423e-01
1.718439e-01
1.224292e-01
8.881361e-02
6.543485e-02
4.881960e-02
3.679773e-02
2.797363e-02
2.142037e-02
1.650551e-02
1.278830e-02
9.956340e-03
7.784967e-03
6.110670e-03
4.813159e-03
3.803110e-03
3.013645e-03
2.394327e-03
1.906863e-03
1.522012e-03
1.217325e-03
9.754840e-04
7.830712e-04
6.296481e-04
5.070647e-04
4.089362e-04
3.302448e-04
2.670360e-04
2.161849e-04
1.752158e-04
1.421632e-04
1.154628e-04
9.386756e-05
7.638121e-05
6.220649e-05
5.070433e-05
4.136164e-05
3.376590e-05
2.758495e-05
2.255100e-05
1.844788e-05
1.510087e-05
1.236863e-05
1.013665e-05
8.312107e-06
6.819645e-06
5.598064e-06
4.597599e-06
3.777753e-06
3.105545e-06
2.554094e-06
2.101475e-06
1.729789e-06
1.424420e-06
1.173419e-06
9.670137e-07
7.972080e-07
6.574537e-07
5.423860e-07
4.476073e-07
3.695105e-07
3.051359e-07
2.520535e-07
2.082675e-07
1.721377e-07
1.423156e-07
1.176925e-07
9.735597e-08
8.055543e-08
6.667364e-08
5.520428e-08
4.573537e-08
3.794040e-08
3.158264e-08
2.654748e-08
2.294065e-08
9.489230e-01
8.045034e-01
6.472268e-01
5.000000e-01
3.761443e-01
2.795795e-01
2.075924e-01
1.549323e-01
1.164941e-01
8.826664e-02
6.735459e-02
5.172337e-02
3.994363e-02
3.100152e-02
2.416940e-02
1.891913e-02
1.486350e-02
1.171600e-02
9.262949e-03
7.343775e-03
5.837025e-03
4.650283e-03
3.712837e-03
2.970315e-03
2.380718e-03
1.911468e-03
1.537199e-03
1.238090e-03
9.986029e-04
8.065190e-04
6.522044e-04
5.280430e-04
4.279991e-04
3.472788e-04
2.820665e-04
2.293192e-04
1.866054e-04
1.519791e-04
1.238802e-04
1.010559e-04
8.249879e-05
6.739777e-05
5.509879e-05
4.507384e-05
3.689617e-05
3.022046e-05
2.476701e-05
2.030902e-05
1.666242e-05
1.367766e-05
1.123318e-05
9.230008e-06
7.587578e-06
6.240203e-06
5.134311e-06
4.226173e-06
3.480070e-06
2.866807e-06
2.362510e-06
1.947637e-06
1.606190e-06
1.325059e-06
1.093501e-06
9.027007e-07
7.454273e-07
6.157434e-07
5.087722e-07
4.205064e-07
3.476514e-07
2.874978e-07
2.378161e-07
1.967717e-07
1.628544e-07
1.348219e-07
1.116550e-07
9.252400e-08
7.677124e-08
6.392003e-08
5.374029e-08
4.644721e-08
9.710917e-01
8.766892e-01
7.546577e-01
6.238557e-01
5.000000e-01
3.924583e-01
3.044538e-01
2.350486e-01
1.813921e-01
1.402624e-01
1.087918e-01
8.467298e-02
6.613013e-02
5.182128e-02
4.073749e-02
3.211981e-02
2.539564e-02
2.013127e-02
1.599677e-02
1.274006e-02
1.016770e-02
8.130664e-03
6.513674e-03
5.227238e-03
4.201636e-03
3.382378e-03
2.726745e-03
2.201151e-03
1.779121e-03
1.439730e-03
1.166404e-03
9.459822e-04
7.679972e-04
6.241037e-04
5.076377e-04
4.132681e-04
3.367233e-04
2.745750e-04
2.240680e-04
1.829851e-04
1.495390e-04
1.222880e-04
1.000672e-04
8.193450e-05
6.712724e-05
5.502722e-05
4.513297e-05
3.703726e-05
3.040914e-05
2.497938e-05
2.052882e-05
1.687890e-05
1.388402e-05
1.142539e-05
9.406003e-06
7.746615e-06
6.382430e-06
5.260439e-06
4.337254e-06
3.577337e-06
2.951565e-06
2.436061e-06
2.011235e-06
1.661011e-06
1.372188e-06
1.133919e-06
9.372909e-07
7.749748e-07
6.409412e-07
5.302288e-07
4.387534e-07
3.631516e-07
3.006541e-07
2.489813e-07
2.062621e-07
1.709728e-07
1.419056e-07
1.181852e-07
9.939073e-08
8.592321e-08
9.812026e-01
9.182737e-01
8.281561e-01
7.204205e-01
6.075417e-01
5.000000e-01
4.043490e-01
3.232892e-01
2.567754e-01
2.032850e-01
1.607641e-01
1.271667e-01
1.006897e-01
7.983679e-02
6.340459e-02
5.044056e-02
4.019689e-02
3.208867e-02
2.565905e-02
2.055113e-02
1.648578e-02
1.324445e-02
1.065565e-02
8.584572e-03
6.925039e-03
5.593245e-03
4.522910e-03
3.661511e-03
2.967343e-03
2.407236e-03
1.954756e-03
1.588804e-03
1.292509e-03
1.052362e-03
8.575304e-04
6.993123e-04
5.707107e-04
4.660908e-04
3.809099e-04
3.115008e-04
2.549002e-04
2.087106e-04
1.709905e-04
1.401663e-04
1.149608e-04
9.433714e-05
7.745219e-05
6.362025e-05
5.228298e-05
4.298548e-05
3.535682e-05
2.909432e-05
2.395085e-05
1.972448e-05
1.625013e-05
1.339275e-05
1.104178e-05
9.106679e-06
7.513260e-06
6.200687e-06
5.119059e-06
4.227419e-06
3.492141e-06
2.885597e-06
2.385083e-06
1.971933e-06
1.630791e-06
1.349022e-06
1.116223e-06
9.238297e-07
7.647849e-07
6.332743e-07
5.245067e-07
4.345362e-07
3.601217e-07
2.986231e-07
2.479468e-07
2.065762e-07
1.737860e-07
1.502838e-07
9.870262e-01
9.434609e-01
8.775708e-01
7.924076e-01
6.955462e-01
5.956510e-01
5.000000e-01
4.133695e-01
3.380377e-01
2.743922e-01
2.216707e-01
1.785652e-01
1.436163e-01
1.154282e-01
9.276355e-02
7.457119e-02
5.997997e-02
4.827888e-02
3.889300e-02
3.136016e-02
2.531010e-02
2.044679e-02
1.653381e-02
1.338238e-02
1.084176e-02
8.791512e-03
7.135331e-03
5.796161e-03
4.712279e-03
3.834194e-03
3.122179e-03
2.544313e-03
2.074917e-03
1.693314e-03
1.382834e-03
1.130025e-03
9.240191e-04
7.560309e-04
6.189485e-04
5.070104e-04
4.155452e-04
3.407614e-04
2.795797e-04
2.294967e-04
1.884759e-04
1.548591e-04
1.272955e-04
1.046835e-04
8.612440e-05
7.088456e-05
5.836453e-05
4.807429e-05
3.961307e-05
3.265284e-05
2.692500e-05
2.220948e-05
1.832587e-05
1.512623e-05
1.248913e-05
1.031492e-05
8.521734e-06
7.042307e-06
5.821349e-06
4.813387e-06
3.981011e-06
3.293430e-06
2.725292e-06
2.255717e-06
1.867499e-06
1.546458e-06
1.280902e-06
1.061188e-06
8.793652e-07
7.288804e-07
6.043468e-07
5.013740e-07
4.164793e-07
3.471417e-07
2.921626e-07
2.527451e-07
9.907856e-01
9.596962e-01
9.111864e-01
8.450677e-01
7.649514e-01
6.767108e-01
5.866305e-01
5.000000e-01
4.204468e-01
3.499086e-01
2.889722e-01
2.373218e-01
1.941359e-01
1.583757e-01
1.289658e-01
1.048935e-01
8.525509e-02
6.926964e-02
5.627683e-02
4.572607e-02
3.716268e-02
3.021371e-02
2.457468e-02
1.999777e-02
1.628176e-02
1.326351e-02
1.081084e-02
8.816735e-03
7.194571e-03
5.874220e-03
4.798899e-03
3.922619e-03
3.208114e-03
2.625176e-03
2.149300e-03
1.760600e-03
1.442926e-03
1.183156e-03
9.706189e-04
7.966345e-04
6.541355e-04
5.373649e-04
4.416302e-04
3.631038e-04
2.986625e-04
2.457557e-04
2.022994e-04
1.665902e-04
1.372345e-04
1.130921e-04
9.322926e-05
7.688097e-05
6.342031e-05
5.233317e-05
4.319777e-05
3.566790e-05
2.945930e-05
2.433843e-05
2.011338e-05
1.662634e-05
1.374752e-05
1.137012e-05
9.406255e-06
7.783522e-06
6.442298e-06
5.333451e-06
4.416480e-06
3.657987e-06
3.030428e-06
2.511075e-06
2.081170e-06
1.725229e-06
1.430472e-06
1.186356e-06
9.842096e-07
8.169578e-07
6.789877e-07
5.662395e-07
4.767967e-07
4.126480e-07
9.933272e-01
9.706709e-01
9.345651e-01
8.835059e-01
8.186079e-01
7.432246e-01
6.619623e-01
5.795532e-01
5.000000e-01
4.261556e-01
3.596834e-01
3.012508e-01
2.508085e-01
2.078583e-01
1.716646e-01
1.414017e-01
1.162461e-01
9.542784e-02
7.825633e-02
6.412790e-02
5.252471e-02
4.300834e-02
3.521106e-02
2.882668e-02
2.360148e-02
1.932614e-02
1.582840e-02
1.296683e-02
1.062555e-02
8.709649e-03
7.141515e-03
5.857697e-03
4.806344e-03
3.945092e-03
3.239334e-03
2.660794e-03
2.186371e-03
1.797187e-03
1.477807e-03
1.215616e-03
1.000293e-03
8.233947e-04
6.780109e-04
5.584839e-04
4.601798e-04
3.793015e-04
3.127370e-04
2.579342e-04
2.127996e-04
1.756152e-04
1.449707e-04
1.197078e-04
9.887500e-05
8.169009e-05
6.751008e-05
5.580611e-05
4.614306e-05
3.816278e-05
3.157042e-05
2.612313e-05
2.162082e-05
1.789860e-05
1.482053e-05
1.227451e-05
1.016807e-05
8.424891e-06
6.982003e-06
5.787404e-06
4.798149e-06
3.978764e-06
3.299940e-06
2.737453e-06
2.271290e-06
1.884925e-06
1.564749e-06
1.299655e-06
1.080824e-06
9.018855e-07
7.598564e-07
6.579519e-07
9.950921e-01
9.783300e-01
9.511804e-01
9.117334e-01
8.597376e-01
7.967150e-01
7.256078e-01
6.500914e-01
5.738444e-01
5.000000e-01
4.308668e-01
3.678866e-01
3.117464e-01
2.625575e-01
2.200396e-01
1.836778e-01
1.528404e-01
1.268599e-01
1.050851e-01
8.691019e-02
7.178932e-02
5.924176e-02
4.885083e-02
4.025973e-02
3.316571e-02
2.731368e-02
2.248987e-02
1.851592e-02
1.524350e-02
1.254958e-02
1.033235e-02
8.507661e-03
7.006100e-03
5.770432e-03
4.753519e-03
3.916554e-03
3.227610e-03
2.660421e-03
2.193390e-03
1.808757e-03
1.491919e-03
1.230872e-03
1.015743e-03
8.384136e-04
6.922084e-04
5.716355e-04
4.721771e-04
3.901157e-04
3.223917e-04
2.664866e-04
2.203266e-04
1.822037e-04
1.507111e-04
1.246894e-04
1.031831e-04
8.540465e-05
7.070442e-05
5.854669e-05
4.848947e-05
4.016802e-05
3.328127e-05
2.758063e-05
2.286084e-05
1.895231e-05
1.571495e-05
1.303296e-05
1.081063e-05
8.968830e-06
7.442104e-06
6.176321e-06
5.126693e-06
4.256161e-06
3.534069e-06
2.935071e-06
2.438278e-06
2.026621e-06
1.686547e-06
1.408269e-06
1.187257e-06
1.028611e-06
9.963437e-01
9.837955e-01
9.632023e-01
9.326454e-01
8.912082e-01
8.392359e-01
7.783293e-01
7.110278e-01
6.403166e-01
5.691332e-01
5.000000e-01
4.348290e-01
3.748815e-01
3.208335e-01
2.728924e-01
2.309269e-01
1.945838e-01
1.633821e-01
1.367830e-01
1.142376e-01
9.521762e-02
7.923341e-02
6.584277e-02
5.465395e-02
4.532488e-02
3.756010e-02
3.110670e-02
2.574957e-02
2.130685e-02
1.762538e-02
1.457670e-02
1.205337e-02
9.965726e-03
8.239098e-03
6.811412e-03
5.631129e-03
4.655502e-03
3.849110e-03
3.182626e-03
2.631780e-03
2.176500e-03
1.800187e-03
1.489125e-03
1.231978e-03
1.019380e-03
8.435924e-04
6.982245e-04
5.779962e-04
4.785459e-04
3.962706e-04
3.281939e-04
2.718567e-04
2.252272e-04
1.866264e-04
1.546666e-04
1.282009e-04
1.062812e-04
8.812365e-05
7.308000e-05
6.061418e-05
5.028273e-05
4.171881e-05
3.461886e-05
2.873165e-05
2.384925e-05
1.979951e-05
1.643989e-05
1.365234e-05
1.133911e-05
9.419183e-06
7.825458e-06
6.502330e-06
5.403738e-06
4.491553e-06
3.734311e-06
3.106280e-06
2.587016e-06
2.161775e-06
1.823810e-06
1.581092e-06
9.972473e-01
9.877622e-01
9.720264e-01
9.482766e-01
9.153270e-01
8.728333e-01
8.214348e-01
7.626782e-01
6.987492e-01
6.321134e-01
5.651710e-01
5.000000e-01
4.382144e-01
3.809275e-01
3.287887e-01
2.820623e-01
2.407193e-01
2.045262e-01
1.731199e-01
1.460664e-01
1.229048e-01
1.031762e-01
8.644370e-02
7.230339e-02
6.038991e-02
5.037829e-02
4.198315e-02
3.495644e-02
2.908426e-02
2.418341e-02
2.009782e-02
1.669511e-02
1.386343e-02
1.150856e-02
9.551337e-03
7.925406e-03
6.575232e-03
5.454423e-03
4.524270e-03
3.752513e-03
3.112294e-03
2.581266e-03
2.140852e-03
1.775618e-03
1.472744e-03
1.221590e-03
1.013324e-03
8.406214e-04
6.974049e-04
5.786357e-04
4.801352e-04
3.984395e-04
3.306768e-04
2.744663e-04
2.278347e-04
1.891461e-04
1.570444e-04
1.304055e-04
1.082976e-04
8.994786e-05
7.471590e-05
6.207053e-05
5.157132e-05
4.285303e-05
3.561274e-05
2.959918e-05
2.460391e-05
2.045403e-05
1.700606e-05
1.414095e-05
1.175989e-05
9.780910e-06
8.135982e-06
6.768728e-06
5.632559e-06
4.689334e-06
3.908732e-06
3.268919e-06
2.760036e-06
2.394369e-06
9.979092e-01
9.906807e-01
9.785796e-01
9.600564e-01
9.338699e-01
8.993103e-01
8.563837e-01
8.058641e-01
7.491915e-01
6.882536e-01
6.251185e-01
5.617856e-01
5.000000e-01
4.411462e-01
3.862142e-01
3.358205e-01
2.902612e-01
2.495783e-01
2.136274e-01
1.821376e-01
1.547609e-01
1.311110e-01
1.107908e-01
9.341187e-02
7.860705e-02
6.603774e-02
5.539740e-02
4.641258e-02
3.884211e-02
3.247529e-02
2.712943e-02
2.264713e-02
1.889349e-02
1.575338e-02
1.312895e-02
1.093727e-02
9.108252e-03
7.582813e-03
6.311229e-03
5.251736e-03
4.369303e-03
3.634589e-03
3.023040e-03
2.514135e-03
2.090735e-03
1.738533e-03
1.445600e-03
1.201991e-03
9.994193e-04
8.309851e-04
6.909431e-04
5.745119e-04
4.777131e-04
3.972372e-04
3.303317e-04
2.747077e-04
2.284620e-04
1.900122e-04
1.580431e-04
1.314611e-04
1.093575e-04
9.097672e-05
7.569090e-05
6.297811e-05
5.240455e-05
4.360963e-05
3.629364e-05
3.020743e-05
2.514390e-05
2.093089e-05
1.742528e-05
1.450809e-05
1.208045e-05
1.006030e-05
8.379721e-06
6.983038e-06
5.825979e-06
4.876707e-06
4.121069e-06
3.577766e-06
9.983999e-01
9.928526e-01
9.834945e-01
9.689985e-01
9.481787e-01
9.201632e-01
8.845718e-01
8.416243e-01
7.921417e-01
7.374425e-01
6.791665e-01
6.190725e-01
5.588538e-01
5.000000e-01
4.437141e-01
3.908833e-01
3.420888e-01
2.976426e-01
2.576359e-01
2.219912e-01
1.905100e-01
1.629149e-01
1.388830e-01
1.180712e-01
1.001355e-01
8.474318e-02
7.158201e-02
6.036441e-02
5.082998e-02
4.274592e-02
3.590625e-02
3.013029e-02
2.526068e-02
2.116117e-02
1.771443e-02
1.481979e-02
1.239127e-02
1.035562e-02
8.650622e-03
7.223569e-03
6.029887e-03
5.031957e-03
4.198081e-03
3.501588e-03
2.920064e-03
2.434692e-03
2.029693e-03
1.691846e-03
1.410079e-03
1.175129e-03
9.792522e-04
8.159737e-04
6.798858e-04
5.664728e-04
4.719651e-04
3.932172e-04
3.276052e-04
2.729405e-04
2.273982e-04
1.894571e-04
1.578490e-04
1.315171e-04
1.095807e-04
9.130599e-05
7.608156e-05
6.339806e-05
5.283119e-05
4.402748e-05
3.669251e-05
3.058105e-05
2.548883e-05
2.124576e-05
1.771023e-05
1.476450e-05
1.231095e-05
1.026952e-05
8.576447e-06
7.185995e-06
6.078182e-06
5.281147e-06
9.987676e-01
9.944846e-01
9.872117e-01
9.758306e-01
9.592625e-01
9.365954e-01
9.072364e-01
8.710342e-01
8.283354e-01
7.799604e-01
7.271076e-01
6.712113e-01
6.137858e-01
5.562859e-01
5.000000e-01
4.459857e-01
3.950430e-01
3.477182e-01
3.043290e-01
2.650006e-01
2.297056e-01
1.983032e-01
1.705737e-01
1.462479e-01
1.250302e-01
1.066162e-01
9.070576e-02
7.701169e-02
6.526544e-02
5.522030e-02
4.665280e-02
3.936284e-02
3.317293e-02
2.792689e-02
2.348819e-02
1.973815e-02
1.657414e-02
1.390774e-02
1.166308e-02
9.775255e-03
8.188896e-03
6.856886e-03
5.739216e-03
4.801977e-03
4.016480e-03
3.358486e-03
2.807549e-03
2.346437e-03
1.960645e-03
1.637976e-03
1.368181e-03
1.142655e-03
9.541789e-04
7.966993e-04
6.651432e-04
5.552616e-04
4.634971e-04
3.868727e-04
3.228979e-04
2.694898e-04
2.249070e-04
1.876940e-04
1.566347e-04
1.307128e-04
1.090796e-04
9.102628e-05
7.596084e-05
6.338908e-05
5.289844e-05
4.414451e-05
3.683985e-05
3.074464e-05
2.565881e-05
2.141571e-05
1.787700e-05
1.492897e-05
1.248111e-05
1.046855e-05
8.863544e-06
7.707987e-06
9.990454e-01
9.957210e-01
9.900437e-01
9.810809e-01
9.678802e-01
9.495594e-01
9.254288e-01
8.951065e-01
8.585983e-01
8.163222e-01
7.690731e-01
7.179377e-01
6.641795e-01
6.091167e-01
5.540143e-01
5.000000e-01
4.480125e-01
3.987773e-01
3.528073e-01
3.104195e-01
2.717621e-01
2.368459e-01
2.055755e-01
1.777789e-01
1.532325e-01
1.316820e-01
1.128587e-01
9.649221e-02
8.231928e-02
7.008993e-02
5.957137e-02
5.055007e-02
4.283265e-02
3.624575e-02
3.063527e-02
2.586530e-02
2.181663e-02
1.838533e-02
1.548119e-02
1.302621e-02
1.095322e-02
9.204524e-03
7.730732e-03
6.489646e-03
5.445304e-03
4.567113e-03
3.829093e-03
3.209221e-03
2.688847e-03
2.252204e-03
1.885975e-03
1.578922e-03
1.321575e-03
1.105955e-03
9.253499e-04
7.741133e-04
6.475001e-04
5.415243e-04
4.528399e-04
3.786389e-04
3.165661e-04
2.646468e-04
2.212259e-04
1.849168e-04
1.545578e-04
1.291765e-04
1.079584e-04
9.022214e-05
7.539729e-05
6.300673e-05
5.265133e-05
4.399735e-05
3.676584e-05
3.072395e-05
2.567806e-05
2.146881e-05
1.796923e-05
1.508858e-05
1.278891e-05
1.113198e-05
9.992570e-01
9.966645e-01
9.922150e-01
9.851365e-01
9.746044e-01
9.598031e-01
9.400200e-01
9.147449e-01
8.837539e-01
8.471596e-01
8.054162e-01
7.592807e-01
7.097388e-01
6.579112e-01
6.049570e-01
5.519875e-01
5.000000e-01
4.498343e-01
4.021523e-01
3.574350e-01
3.159949e-01
2.779955e-01
2.434762e-01
2.123782e-01
1.845687e-01
1.598626e-01
1.380418e-01
1.188695e-01
1.021025e-01
8.750001e-02
7.482997e-02
6.387343e-02
5.442716e-02
4.630503e-02
3.933850e-02
3.337636e-02
2.828400e-02
2.394241e-02
2.024699e-02
1.710628e-02
1.444063e-02
1.218099e-02
1.026768e-02
8.649298e-03
7.281670e-03
6.126941e-03
5.152738e-03
4.331435e-03
3.639493e-03
3.056892e-03
2.566628e-03
2.154279e-03
1.807625e-03
1.516328e-03
1.271644e-03
1.066190e-03
8.937356e-04
7.490246e-04
6.276288e-04
5.258186e-04
4.404548e-04
3.688967e-04
3.089238e-04
2.586699e-04
2.165673e-04
1.812995e-04
1.517612e-04
1.270249e-04
1.063126e-04
8.897154e-05
7.445464e-05
6.230325e-05
5.213323e-05
4.362327e-05
3.650565e-05
3.055970e-05
2.560950e-05
2.152964e-05
1.826907e-05
1.591792e-05
9.994191e-01
9.973890e-01
9.938893e-01
9.882840e-01
9.798687e-01
9.679113e-01
9.517211e-01
9.307304e-01
9.045722e-01
8.731401e-01
8.366179e-01
7.954738e-01
7.504217e-01
7.023574e-01
6.522818e-01
6.012227e-01
5.501657e-01
5.000000e-01
4.514829e-01
4.052208e-01
3.616655e-01
3.211220e-01
2.837637e-01
2.496518e-01
2.187565e-01
1.909774e-01
1.661626e-01
1.441250e-01
1.246564e-01
1.075385e-01
9.255127e-02
7.947984e-02
6.811880e-02
5.827528e-02
4.977083e-02
4.244221e-02
3.614167e-02
3.073654e-02
2.610859e-02
2.215311e-02
1.877787e-02
1.590203e-02
1.345504e-02
1.137554e-02
9.610375e-03
8.113602e-03
6.845645e-03
5.772483e-03
4.864938e-03
4.098034e-03
3.450430e-03
2.903921e-03
2.443003e-03
2.054486e-03
1.727165e-03
1.451532e-03
1.219528e-03
1.024325e-03
8.601488e-04
7.221160e-04
6.061014e-04
5.086222e-04
4.267400e-04
3.579771e-04
3.002456e-04
2.517866e-04
2.111192e-04
1.769974e-04
1.483726e-04
1.243635e-04
1.042289e-04
8.734628e-05
7.319292e-05
6.133066e-05
5.139363e-05
4.307982e-05
3.614832e-05
3.042787e-05
2.585085e-05
2.254765e-05
9.995441e-01
9.979484e-01
9.951868e-01
9.907371e-01
9.840032e-01
9.743409e-01
9.611070e-01
9.437232e-01
9.217437e-01
8.949149e-01
8.632170e-01
8.268801e-01
7.863726e-01
7.423641e-01
6.956710e-01
6.471927e-01
5.978477e-01
5.485171e-01
5.000000e-01
4.529835e-01
4.080257e-01
3.655512e-01
3.258563e-01
2.891201e-01
2.554202e-01
2.247502e-01
1.970364e-01
1.721552e-01
1.499467e-01
1.302281e-01
1.128034e-01
9.747213e-02
8.403559e-02
7.230148e-02
6.208726e-02
5.322229e-02
4.554904e-02
3.892364e-02
3.321587e-02
2.830878e-02
2.409803e-02
2.049108e-02
1.740628e-02
1.477192e-02
1.252529e-02
1.061170e-02
8.983676e-03
7.600078e-03
6.425369e-03
5.428925e-03
4.584410e-03
3.869224e-03
3.264002e-03
2.752185e-03
2.319630e-03
1.954278e-03
1.645855e-03
1.385624e-03
1.166159e-03
9.811557e-04
8.252668e-04
6.939611e-04
5.834018e-04
4.903422e-04
4.120369e-04
3.461661e-04
2.907703e-04
2.441958e-04
2.050472e-04
1.721480e-04
1.445066e-04
1.212875e-04
1.017878e-04
8.541661e-05
7.167975e-05
6.016843e-05
5.055642e-05
4.261259e-05
3.624884e-05
3.165205e-05
9.996409e-01
9.983824e-01
9.961969e-01
9.926562e-01
9.872599e-01
9.794489e-01
9.686398e-01
9.542739e-01
9.358721e-01
9.130898e-01
8.857624e-01
8.539336e-01
8.178624e-01