# vtk DataFile Version 3.0
9.SOU_1Pe = 1000,Grid 41x41,000343.vtk
ASCII
DATASET STRUCTURED_GRID
DIMENSIONS 41 41 1
POINTS 1681 double
0.000000e+00 0.000000e+00 0.0
2.500000e-02 0.000000e+00 0.0
5.000000e-02 0.000000e+00 0.0
7.500000e-02 0.000000e+00 0.0
1.000000e-01 0.000000e+00 0.0
1.250000e-01 0.000000e+00 0.0
1.500000e-01 0.000000e+00 0.0
1.750000e-01 0.000000e+00 0.0
2.000000e-01 0.000000e+00 0.0
2.250000e-01 0.000000e+00 0.0
2.500000e-01 0.000000e+00 0.0
2.750000e-01 0.000000e+00 0.0
3.000000e-01 0.000000e+00 0.0
3.250000e-01 0.000000e+00 0.0
3.500000e-01 0.000000e+00 0.0
3.750000e-01 0.000000e+00 0.0
4.000000e-01 0.000000e+00 0.0
4.250000e-01 0.000000e+00 0.0
4.500000e-01 0.000000e+00 0.0
4.750000e-01 0.000000e+00 0.0
5.000000e-01 0.000000e+00 0.0
5.250000e-01 0.000000e+00 0.0
5.500000e-01 0.000000e+00 0.0
5.750000e-01 0.000000e+00 0.0
6.000000e-01 0.000000e+00 0.0
6.250000e-01 0.000000e+00 0.0
6.500000e-01 0.000000e+00 0.0
6.750000e-01 0.000000e+00 0.0
7.000000e-01 0.000000e+00 0.0
7.250000e-01 0.000000e+00 0.0
7.500000e-01 0.000000e+00 0.0
7.750000e-01 0.000000e+00 0.0
8.000000e-01 0.000000e+00 0.0
8.250000e-01 0.000000e+00 0.0
8.500000e-01 0.000000e+00 0.0
8.750000e-01 0.000000e+00 0.0
9.000000e-01 0.000000e+00 0.0
9.250000e-01 0.000000e+00 0.0
9.500000e-01 0.000000e+00 0.0
9.750000e-01 0.000000e+00 0.0
1.000000e+00 0.000000e+00 0.0
0.000000e+00 2.500000e-02 0.0
2.500000e-02 2.500000e-02 0.0
5.000000e-02 2.500000e-02 0.0
7.500000e-02 2.500000e-02 0.0
1.000000e-01 2.500000e-02 0.0
1.250000e-01 2.500000e-02 0.0
1.500000e-01 2.500000e-02 0.0
1.750000e-01 2.500000e-02 0.0
2.000000e-01 2.500000e-02 0.0
2.250000e-01 2.500000e-02 0.0
2.500000e-01 2.500000e-02 0.0
2.750000e-01 2.500000e-02 0.0
3.000000e-01 2.500000e-02 0.0
3.250000e-01 2.500000e-02 0.0
3.500000e-01 2.500000e-02 0.0
3.750000e-01 2.500000e-02 0.0
4.000000e-01 2.500000e-02 0.0
4.250000e-01 2.500000e-02 0.0
4.500000e-01 2.500000e-02 0.0
4.750000e-01 2.500000e-02 0.0
5.000000e-01 2.500000e-02 0.0
5.250000e-01 2.500000e-02 0.0
5.500000e-01 2.500000e-02 0.0
5.750000e-01 2.500000e-02 0.0
6.000000e-01 2.500000e-02 0.0
6.250000e-01 2.500000e-02 0.0
6.500000e-01 2.500000e-02 0.0
6.750000e-01 2.500000e-02 0.0
7.000000e-01 2.500000e-02 0.0
7.250000e-01 2.500000e-02 0.0
7.500000e-01 2.500000e-02 0.0
7.750000e-01 2.500000e-02 0.0
8.000000e-01 2.500000e-02 0.0
8.250000e-01 2.500000e-02 0.0
8.500000e-01 2.500000e-02 0.0
8.750000e-01 2.500000e-02 0.0
9.000000e-01 2.500000e-02 0.0
9.250000e-01 2.500000e-02 0.0
9.500000e-01 2.500000e-02 0.0
9.750000e-01 2.500000e-02 0.0
1.000000e+00 2.500000e-02 0.0
0.000000e+00 5.000000e-02 0.0
2.500000e-02 5.000000e-02 0.0
5.000000e-02 5.000000e-02 0.0
7.500000e-02 5.000000e-02 0.0
1.000000e-01 5.000000e-02 0.0
1.250000e-01 5.000000e-02 0.0
1.500000e-01 5.000000e-02 0.0
1.750000e-01 5.000000e-02 0.0
2.000000e-01 5.000000e-02 0.0
2.250000e-01 5.000000e-02 0.0
2.500000e-01 5.000000e-02 0.0
2.750000e-01 5.000000e-02 0.0
3.000000e-01 5.000000e-02 0.0
3.250000e-01 5.000000e-02 0.0
3.500000e-01 5.000000e-02 0.0
3.750000e-01 5.000000e-02 0.0
4.000000e-01 5.000000e-02 0.0
4.250000e-01 5.000000e-02 0.0
4.500000e-01 5.000000e-02 0.0
4.750000e-01 5.000000e-02 0.0
5.000000e-01 5.000000e-02 0.0
5.250000e-01 5.000000e-02 0.0
5.500000e-01 5.000000e-02 0.0
5.750000e-01 5.000000e-02 0.0
6.000000e-01 5.000000e-02 0.0
6.250000e-01 5.000000e-02 0.0
6.500000e-01 5.000000e-02 0.0
6.750000e-01 5.000000e-02 0.0
7.000000e-01 5.000000e-02 0.0
7.250000e-01 5.000000e-02 0.0
7.500000e-01 5.000000e-02 0.0
7.750000e-01 5.000000e-02 0.0
8.000000e-01 5.000000e-02 0.0
8.250000e-01 5.000000e-02 0.0
8.500000e-01 5.000000e-02 0.0
8.750000e-01 5.000000e-02 0.0
9.000000e-01 5.000000e-02 0.0
9.250000e-01 5.000000e-02 0.0
9.500000e-01 5.000000e-02 0.0
9.750000e-01 5.000000e-02 0.0
1.000000e+00 5.000000e-02 0.0
0.000000e+00 7.500000e-02 0.0
2.500000e-02 7.500000e-02 0.0
5.000000e-02 7.500000e-02 0.0
7.500000e-02 7.500000e-02 0.0
1.000000e-01 7.500000e-02 0.0
1.250000e-01 7.500000e-02 0.0
1.500000e-01 7.500000e-02 0.0
1.750000e-01 7.500000e-02 0.0
2.000000e-01 7.500000e-02 0.0
2.250000e-01 7.500000e-02 0.0
2.500000e-01 7.500000e-02 0.0
2.750000e-01 7.500000e-02 0.0
3.000000e-01 7.500000e-02 0.0
3.250000e-01 7.500000e-02 0.0
3.500000e-01 7.500000e-02 0.0
3.750000e-01 7.500000e-02 0.0
4.000000e-01 7.500000e-02 0.0
4.250000e-01 7.500000e-02 0.0
4.500000e-01 7.500000e-02 0.0
4.750000e-01 7.500000e-02 0.0
5.000000e-01 7.500000e-02 0.0
5.250000e-01 7.500000e-02 0.0
5.500000e-01 7.500000e-02 0.0
5.750000e-01 7.500000e-02 0.0
6.000000e-01 7.500000e-02 0.0
6.250000e-01 7.500000e-02 0.0
6.500000e-01 7.500000e-02 0.0
6.750000e-01 7.500000e-02 0.0
7.000000e-01 7.500000e-02 0.0
7.250000e-01 7.500000e-02 0.0
7.500000e-01 7.500000e-02 0.0
7.750000e-01 7.500000e-02 0.0
8.000000e-01 7.500000e-02 0.0
8.250000e-01 7.500000e-02 0.0
8.500000e-01 7.500000e-02 0.0
8.750000e-01 7.500000e-02 0.0
9.000000e-01 7.500000e-02 0.0
9.250000e-01 7.500000e-02 0.0
9.500000e-01 7.500000e-02 0.0
9.750000e-01 7.500000e-02 0.0
1.000000e+00 7.500000e-02 0.0
0.000000e+00 1.000000e-01 0.0
2.500000e-02 1.000000e-01 0.0
5.000000e-02 1.000000e-01 0.0
7.500000e-02 1.000000e-01 0.0
1.000000e-01 1.000000e-01 0.0
1.250000e-01 1.000000e-01 0.0
1.500000e-01 1.000000e-01 0.0
1.750000e-01 1.000000e-01 0.0
2.000000e-01 1.000000e-01 0.0
2.250000e-01 1.000000e-01 0.0
2.500000e-01 1.000000e-01 0.0
2.750000e-01 1.000000e-01 0.0
3.000000e-01 1.000000e-01 0.0
3.250000e-01 1.000000e-01 0.0
3.500000e-01 1.000000e-01 0.0
3.750000e-01 1.000000e-01 0.0
4.000000e-01 1.000000e-01 0.0
4.250000e-01 1.000000e-01 0.0
4.500000e-01 1.000000e-01 0.0
4.750000e-01 1.000000e-01 0.0
5.000000e-01 1.000000e-01 0.0
5.250000e-01 1.000000e-01 0.0
5.500000e-01 1.000000e-01 0.0
5.750000e-01 1.000000e-01 0.0
6.000000e-01 1.000000e-01 0.0
6.250000e-01 1.000000e-01 0.0
6.500000e-01 1.000000e-01 0.0
6.750000e-01 1.000000e-01 0.0
7.000000e-01 1.000000e-01 0.0
7.250000e-01 1.000000e-01 0.0
7.500000e-01 1.000000e-01 0.0
7.750000e-01 1.000000e-01 0.0
8.000000e-01 1.000000e-01 0.0
8.250000e-01 1.000000e-01 0.0
8.500000e-01 1.000000e-01 0.0
8.750000e-01 1.000000e-01 0.0
9.000000e-01 1.000000e-01 0.0
9.250000e-01 1.000000e-01 0.0
9.500000e-01 1.000000e-01 0.0
9.750000e-01 1.000000e-01 0.0
1.000000e+00 1.000000e-01 0.0
0.000000e+00 1.250000e-01 0.0
2.500000e-02 1.250000e-01 0.0
5.000000e-02 1.250000e-01 0.0
7.500000e-02 1.250000e-01 0.0
1.000000e-01 1.250000e-01 0.0
1.250000e-01 1.250000e-01 0.0
1.500000e-01 1.250000e-01 0.0
1.750000e-01 1.250000e-01 0.0
2.000000e-01 1.250000e-01 0.0
2.250000e-01 1.250000e-01 0.0
2.500000e-01 1.250000e-01 0.0
2.750000e-01 1.250000e-01 0.0
3.000000e-01 1.250000e-01 0.0
3.250000e-01 1.250000e-01 0.0
3.500000e-01 1.250000e-01 0.0
3.750000e-01 1.250000e-01 0.0
4.000000e-01 1.250000e-01 0.0
4.250000e-01 1.250000e-01 0.0
4.500000e-01 1.250000e-01 0.0
4.750000e-01 1.250000e-01 0.0
5.000000e-01 1.250000e-01 0.0
5.250000e-01 1.250000e-01 0.0
5.500000e-01 1.250000e-01 0.0
5.750000e-01 1.250000e-01 0.0
6.000000e-01 1.250000e-01 0.0
6.250000e-01 1.250000e-01 0.0
6.500000e-01 1.250000e-01 0.0
6.750000e-01 1.250000e-01 0.0
7.000000e-01 1.250000e-01 0.0
7.250000e-01 1.250000e-01 0.0
7.500000e-01 1.250000e-01 0.0
7.750000e-01 1.250000e-01 0.0
8.000000e-01 1.250000e-01 0.0
8.250000e-01 1.250000e-01 0.0
8.500000e-01 1.250000e-01 0.0
8.750000e-01 1.250000e-01 0.0
9.000000e-01 1.250000e-01 0.0
9.250000e-01 1.250000e-01 0.0
9.500000e-01 1.250000e-01 0.0
9.750000e-01 1.250000e-01 0.0
1.000000e+00 1.250000e-01 0.0
0.000000e+00 1.500000e-01 0.0
2.500000e-02 1.500000e-01 0.0
5.000000e-02 1.500000e-01 0.0
7.500000e-02 1.500000e-01 0.0
1.000000e-01 1.500000e-01 0.0
1.250000e-01 1.500000e-01 0.0
1.500000e-01 1.500000e-01 0.0
1.750000e-01 1.500000e-01 0.0
2.000000e-01 1.500000e-01 0.0
2.250000e-01 1.500000e-01 0.0
2.500000e-01 1.500000e-01 0.0
2.750000e-01 1.500000e-01 0.0
3.000000e-01 1.500000e-01 0.0
3.250000e-01 1.500000e-01 0.0
3.500000e-01 1.500000e-01 0.0
3.750000e-01 1.500000e-01 0.0
4.000000e-01 1.500000e-01 0.0
4.250000e-01 1.500000e-01 0.0
4.500000e-01 1.500000e-01 0.0
4.750000e-01 1.500000e-01 0.0
5.000000e-01 1.500000e-01 0.0
5.250000e-01 1.500000e-01 0.0
5.500000e-01 1.500000e-01 0.0
5.750000e-01 1.500000e-01 0.0
6.000000e-01 1.500000e-01 0.0
6.250000e-01 1.500000e-01 0.0
6.500000e-01 1.500000e-01 0.0
6.750000e-01 1.500000e-01 0.0
7.000000e-01 1.500000e-01 0.0
7.250000e-01 1.500000e-01 0.0
7.500000e-01 1.500000e-01 0.0
7.750000e-01 1.500000e-01 0.0
8.000000e-01 1.500000e-01 0.0
8.250000e-01 1.500000e-01 0.0
8.500000e-01 1.500000e-01 0.0
8.750000e-01 1.500000e-01 0.0
9.000000e-01 1.500000e-01 0.0
9.250000e-01 1.500000e-01 0.0
9.500000e-01 1.500000e-01 0.0
9.750000e-01 1.500000e-01 0.0
1.000000e+00 1.500000e-01 0.0
0.000000e+00 1.750000e-01 0.0
2.500000e-02 1.750000e-01 0.0
5.000000e-02 1.750000e-01 0.0
7.500000e-02 1.750000e-01 0.0
1.000000e-01 1.750000e-01 0.0
1.250000e-01 1.750000e-01 0.0
1.500000e-01 1.750000e-01 0.0
1.750000e-01 1.750000e-01 0.0
2.000000e-01 1.750000e-01 0.0
2.250000e-01 1.750000e-01 0.0
2.500000e-01 1.750000e-01 0.0
2.750000e-01 1.750000e-01 0.0
3.000000e-01 1.750000e-01 0.0
3.250000e-01 1.750000e-01 0.0
3.500000e-01 1.750000e-01 0.0
3.750000e-01 1.750000e-01 0.0
4.000000e-01 1.750000e-01 0.0
4.250000e-01 1.750000e-01 0.0
4.500000e-01 1.750000e-01 0.0
4.750000e-01 1.750000e-01 0.0
5.000000e-01 1.750000e-01 0.0
5.250000e-01 1.750000e-01 0.0
5.500000e-01 1.750000e-01 0.0
5.750000e-01 1.750000e-01 0.0
6.000000e-01 1.750000e-01 0.0
6.250000e-01 1.750000e-01 0.0
6.500000e-01 1.750000e-01 0.0
6.750000e-01 1.750000e-01 0.0
7.000000e-01 1.750000e-01 0.0
7.250000e-01 1.750000e-01 0.0
7.500000e-01 1.750000e-01 0.0
7.750000e-01 1.750000e-01 0.0
8.000000e-01 1.750000e-01 0.0
8.250000e-01 1.750000e-01 0.0
8.500000e-01 1.750000e-01 0.0
8.750000e-01 1.750000e-01 0.0
9.000000e-01 1.750000e-01 0.0
9.250000e-01 1.750000e-01 0.0
9.500000e-01 1.750000e-01 0.0
9.750000e-01 1.750000e-01 0.0
1.000000e+00 1.750000e-01 0.0
[...]
CELL_DATA 1600
SCALARS Temperature double 1
LOOKUP_TABLE default
5.000000e-01
3.473084e-01
1.280631e-01
2.608744e-02
-2.024767e-03
-4.490973e-03
-2.272840e-03
-7.249967e-04
-1.352533e-04
7.415662e-06
1.851033e-05
9.165475e-06
3.135665e-06
8.914785e-07
2.508258e-07
8.198166e-08
2.789486e-08
6.196208e-09
-1.519174e-09
-2.794151e-09
-1.964268e-09
-9.896272e-10
-3.891037e-10
-1.150945e-10
-1.816054e-11
6.018639e-12
7.455567e-12
4.517119e-12
2.124049e-12
8.363294e-13
2.714349e-13
6.212661e-14
-2.982584e-16
-1.151883e-14
-8.988749e-15
-4.941284e-15
-2.221504e-15
-8.302683e-16
-2.393706e-16
1.611482e-17
6.526916e-01
5.000000e-01
3.306314e-01
1.605640e-01
5.260191e-02
6.146831e-03
-5.889751e-03
-5.411708e-03
-2.783808e-03
-1.013559e-03
-2.364256e-04
2.372924e-06
3.919206e-05
2.637793e-05
1.199683e-05
4.215144e-06
1.095721e-06
1.263663e-07
-7.750304e-08
-7.488840e-08
-4.221000e-08
-1.907451e-08
-7.288592e-09
-2.279573e-09
-4.753720e-10
3.795339e-11
1.147228e-10
8.209208e-11
4.287992e-11
1.836098e-11
6.458304e-12
1.678891e-12
1.321077e-13
-2.013265e-13
-1.800182e-13
-1.032353e-13
-4.753377e-14
-1.819389e-14
-5.474084e-15
1.671140e-16
8.719369e-01
6.693686e-01
5.000000e-01
3.250478e-01
1.704425e-01
6.626661e-02
1.369009e-02
-4.641852e-03
-6.956770e-03
-4.531963e-03
-2.080325e-03
-6.814330e-04
-1.088459e-04
4.825951e-05
5.609773e-05
3.260293e-05
1.390023e-05
4.426156e-06
8.141259e-07
-1.680413e-07
-2.619589e-07
-1.632299e-07
-7.545248e-08
-2.795117e-08
-7.877094e-09
-1.088596e-09
5.424027e-10
5.996087e-10
3.607454e-10
1.696110e-10
6.587905e-11
2.030818e-11
3.796557e-12
-7.450400e-13
-1.270536e-12
-8.518362e-13
-4.303978e-13
-1.790283e-13
-6.025064e-14
-3.026579e-15
9.739126e-01
8.394360e-01
6.749522e-01
5.000000e-01
3.265216e-01
1.790772e-01
7.683180e-02
2.056592e-02
-2.462140e-03
-7.590148e-03
-5.935504e-03
-3.186944e-03
-1.267109e-03
-3.207572e-04
1.632592e-05
8.013077e-05
5.930513e-05
2.990776e-05
1.135177e-05
2.900194e-06
4.524623e-08
-5.110140e-07
-3.949223e-07
-2.040670e-07
-8.178160e-08
-2.463629e-08
-3.817704e-09
1.551034e-09
1.859876e-09
1.132241e-09
5.268797e-10
1.980613e-10
5.645193e-11
7.471667e-12
-4.502159e-12
-4.837421e-12
-2.920650e-12
-1.378147e-12
-5.319325e-13
-7.328463e-14
1.002025e+00
9.473981e-01
8.295575e-01
6.734784e-01
5.000000e-01
3.302802e-01
1.872734e-01
8.590923e-02
2.689962e-02
1.395477e-04
-7.611564e-03
-6.999975e-03
-4.243266e-03
-1.934104e-03
-6.209591e-04
-6.589449e-05
8.790033e-05
8.678493e-05
5.112422e-05
2.246093e-05
7.141004e-06
1.005329e-06
-6.628519e-07
-7.199823e-07
-4.291689e-07
-1.918695e-07
-6.518462e-08
-1.343532e-08
2.073641e-09
4.137177e-09
2.789629e-09
1.368912e-09
5.317100e-10
1.542428e-10
1.999968e-11
-1.319735e-11
-1.389597e-11
-8.296025e-12
-3.834537e-12
-8.913850e-13
1.004491e+00
9.938532e-01
9.337334e-01
8.209228e-01
6.697198e-01
5.000000e-01
3.345846e-01
1.949562e-01
9.406875e-02
3.284806e-02
2.977235e-03
-7.192572e-03
-7.758943e-03
-5.205268e-03
-2.637475e-03
-9.911225e-04
-1.996987e-04
7.221960e-05
1.096463e-04
7.539020e-05
3.761089e-05
1.404996e-05
3.175253e-06
-4.775776e-07
-1.064987e-06
-7.528970e-07
-3.785233e-07
-1.455129e-07
-3.800940e-08
-6.383310e-10
7.079498e-09
5.670314e-09
3.041805e-09
1.267804e-09
3.984339e-10
6.577960e-11
-2.528760e-11
-3.224882e-11
-2.021711e-11
-7.244774e-12
1.002273e+00
1.005890e+00
9.863099e-01
9.231682e-01
8.127266e-01
6.654154e-01
5.000000e-01
3.388677e-01
2.021090e-01
1.015688e-01
3.850726e-02
5.962632e-03
-6.441261e-03
-8.249690e-03
-6.053266e-03
-3.345323e-03
-1.412705e-03
-3.817464e-04
2.909563e-05
1.232867e-04
1.001081e-04
5.607541e-05
2.382463e-05
6.946691e-06
3.212458e-07
-1.307000e-06
-1.148160e-06
-6.522677e-07
-2.816330e-07
-8.820638e-08
-1.141823e-08
9.316958e-09
9.812270e-09
5.899869e-09
2.685772e-09
9.346466e-10
1.996494e-10
-2.885232e-11
-6.218983e-11
-3.889001e-11
1.000725e+00
1.005412e+00
1.004642e+00
9.794341e-01
9.140908e-01
8.050438e-01
6.611323e-01
5.000000e-01
3.429429e-01
2.087549e-01
1.085447e-01
4.393071e-02
9.044436e-03
-5.430400e-03
-8.505860e-03
-6.780053e-03
-4.035515e-03
-1.869107e-03
-6.063744e-04
-4.297934e-05
1.241923e-04
1.226672e-04
7.674556e-05
3.635695e-05
1.258587e-05
2.003613e-06
-1.289721e-06
-1.558339e-06
-1.008981e-06
-4.859064e-07
-1.757882e-07
-3.701258e-08
8.192222e-09
1.469601e-08
1.017190e-08
5.103776e-09
1.971677e-09
5.186101e-10
6.728024e-12
-1.236487e-10
1.000135e+00
1.002784e+00
1.006957e+00
1.002462e+00
9.731004e-01
9.059312e-01
7.978910e-01
6.570571e-01
5.000000e-01
3.467569e-01
2.149326e-01
1.150784e-01
4.914912e-02
1.218833e-02
-4.212068e-03
-8.556353e-03
-7.384914e-03
-4.692853e-03
-2.346226e-03
-8.669869e-04
-1.437480e-04
1.099369e-04
1.406949e-04
9.831381e-05
5.128621e-05
2.021301e-05
4.800088e-06
-8.426776e-07
-1.902100e-06
-1.427837e-06
-7.639547e-07
-3.117401e-07
-8.546915e-08
-2.789283e-10
1.904100e-08
1.580676e-08
8.808462e-09
3.765516e-09
1.162683e-09
-8.689539e-11
9.999926e-01
1.001014e+00
1.004532e+00
1.007590e+00
9.998605e-01
9.671519e-01
8.984312e-01
7.912451e-01
6.532431e-01
5.000000e-01
3.503056e-01
2.206847e-01
1.212262e-01
5.418152e-02
1.536926e-02
-2.825487e-03
-8.425851e-03
-7.870578e-03
-5.307015e-03
-2.832382e-03
-1.156838e-03
-2.717742e-04
7.905290e-05
1.521807e-04
1.194170e-04
6.806637e-05
2.980537e-05
8.880999e-06
2.009224e-07
-2.081070e-06
-1.871812e-06
-1.112635e-06
-5.044393e-07
-1.652388e-07
-2.121208e-08
2.070305e-08
2.233128e-08
1.396548e-08
6.563882e-09
1.340381e-09
9.999815e-01
1.000236e+00
1.002080e+00
1.005936e+00
1.007612e+00
9.970228e-01
9.614927e-01
8.914553e-01
7.850674e-01
6.496944e-01
5.000000e-01
3.536038e-01
2.260528e-01
1.270309e-01
5.904102e-02
1.856809e-02
-1.301367e-03
-8.135573e-03
-8.241621e-03
-5.871138e-03
-3.318040e-03
-1.469447e-03
-4.248797e-04
3.086312e-05
1.555181e-04
1.387367e-04
8.603182e-05
4.121414e-05
1.434656e-05
1.989877e-06
-1.988451e-06
-2.290081e-06
-1.519198e-06
-7.581543e-07
-2.841686e-07
-6.046920e-08
1.669100e-08
2.874626e-08
2.047004e-08
8.147853e-09
9.999908e-01
9.999976e-01
1.000681e+00
1.003187e+00
1.007000e+00
1.007193e+00
9.940374e-01
9.560693e-01
8.849216e-01
7.793153e-01
6.463962e-01
5.000000e-01
3.566721e-01
2.310754e-01
1.325267e-01
6.373765e-02
2.176986e-02
3.355664e-04
-7.703929e-03
-8.503586e-03
-6.380837e-03
-3.795489e-03
-1.798809e-03
-6.004565e-04
-3.468519e-05
1.494999e-04
1.550630e-04
1.044542e-04
5.418799e-05
2.122542e-05
4.644924e-06
-1.517214e-06
-2.621560e-06
-1.961508e-06
-1.072027e-06
-4.485396e-07
-1.241541e-07
3.294571e-09
3.341361e-08
2.585263e-08
9.999969e-01
9.999608e-01
1.000109e+00
1.001267e+00
1.004243e+00
1.007759e+00
1.006441e+00
9.909556e-01
9.508509e-01
8.787738e-01
7.739472e-01
6.433279e-01
5.000000e-01
3.595323e-01
2.357871e-01
1.377422e-01
6.827978e-02
2.496277e-02
2.065019e-03
-7.147027e-03
-8.662482e-03
-6.833537e-03
-4.258545e-03
-2.139479e-03
-7.956842e-04
-1.171674e-04
1.332866e-04
1.673318e-04
1.225880e-04
6.839834e-05
2.947888e-05
8.252721e-06
-5.671090e-07
-2.798926e-06
-2.409091e-06
-1.439577e-06
-6.622602e-07
-2.180592e-07
-2.350516e-08
4.541768e-08
9.999991e-01
9.999736e-01
9.999517e-01
1.000321e+00
1.001934e+00
1.005205e+00
1.008250e+00
1.005430e+00
9.878117e-01
9.458185e-01
8.729691e-01
7.689246e-01
6.404677e-01
5.000000e-01
3.622049e-01
2.402184e-01
1.427022e-01
7.267486e-02
2.813750e-02
3.870111e-03
-6.479049e-03
-8.724486e-03
-7.227989e-03
-4.702301e-03
-2.486597e-03
-1.007679e-03
-2.158052e-04
1.063641e-04
1.746417e-04
1.397047e-04
8.346341e-05
3.900877e-05
1.286323e-05
9.498642e-07
-2.752622e-06
-2.824735e-06
-1.848687e-06
-9.262482e-07
-3.458118e-07
-5.023314e-09
9.999997e-01
9.999880e-01
9.999439e-01
9.999837e-01
1.000621e+00
1.002637e+00
1.006053e+00
1.008506e+00
1.004212e+00
9.846307e-01
9.409590e-01
8.674733e-01
7.642129e-01
6.377951e-01
5.000000e-01
3.647088e-01
2.443963e-01
1.474280e-01
7.692978e-02
3.128671e-02
5.736669e-03
-5.712545e-03
-8.695753e-03
-7.563923e-03
-5.122901e-03
-2.835874e-03
-1.233594e-03
-3.295671e-04
6.849788e-05
1.762577e-04
1.551177e-04
9.896970e-05
4.966698e-05
1.848975e-05
3.105576e-06
-2.414507e-06
-3.166391e-06
-2.281896e-06
-1.233958e-06
-3.311631e-07
9.999999e-01
9.999958e-01
9.999674e-01
9.999199e-01
1.000066e+00
1.000991e+00
1.003345e+00
1.006780e+00
1.008556e+00
1.002825e+00
9.814319e-01
9.362624e-01
8.622578e-01
7.597816e-01
6.352912e-01
5.000000e-01
3.670606e-01
2.483446e-01
1.519384e-01
8.105101e-02
3.440466e-02
7.652720e-03
-4.858662e-03
-8.582305e-03
-7.841796e-03
-5.517369e-03
-3.183558e-03
-1.470684e-03
-4.572490e-04
1.968752e-05
1.716068e-04
1.681983e-04
1.144901e-04
6.126567e-05
2.511090e-05
5.953358e-06
-1.720964e-06
-3.388971e-06
-2.708930e-06
-1.259999e-06
1.000000e+00
9.999989e-01
9.999861e-01
9.999407e-01
9.999121e-01
1.000200e+00
1.001413e+00
1.004036e+00
1.007385e+00
1.008426e+00
1.001301e+00
9.782301e-01
9.317202e-01
8.572978e-01
7.556037e-01
6.329394e-01
5.000000e-01
3.692751e-01
2.520842e-01
1.562503e-01
8.504468e-02
3.748692e-02
9.608098e-03
-3.927326e-03
-8.389954e-03
-8.062601e-03
-5.883454e-03
-3.526397e-03
-1.716348e-03
-5.975377e-04
-3.987509e-05
1.602675e-04
1.783864e-04
1.295988e-04
7.358725e-05
3.267380e-05
9.526862e-06
-6.151220e-07
-3.438193e-06
-2.883726e-06
1.000000e+00
9.999999e-01
9.999956e-01
9.999701e-01
9.999132e-01
9.999278e-01
1.000382e+00
1.001869e+00
1.004693e+00
1.007871e+00
1.008136e+00
9.996644e-01
9.750372e-01
9.273251e-01
8.525720e-01
7.516554e-01
6.307249e-01
5.000000e-01
3.713653e-01
2.556335e-01
1.603784e-01
8.891666e-02
4.053011e-02
1.159414e-02
-2.927394e-03
-8.124261e-03
-8.227719e-03
-6.219506e-03
-3.861592e-03
-1.968155e-03
-7.490601e-04
-1.098434e-04
1.419566e-04
1.851955e-04
1.438826e-04
8.639355e-05
4.109813e-05
1.383985e-05
9.398940e-07
-4.044366e-06
1.000000e+00
1.000000e+00
9.999992e-01
9.999886e-01
9.999489e-01
9.998904e-01
9.999709e-01
1.000606e+00
1.002346e+00
1.005307e+00
1.008242e+00
1.007704e+00
9.979350e-01
9.718625e-01
9.230702e-01
8.480616e-01
7.479158e-01
6.286347e-01
5.000000e-01
3.733426e-01
2.590088e-01
1.643362e-01
9.267252e-02
4.353168e-02
1.360346e-02
-1.866780e-03
-7.790509e-03
-8.338811e-03
-6.524375e-03
-4.186752e-03
-2.223854e-03
-9.104211e-04
-1.897490e-04
1.165149e-04
1.882141e-04
1.569502e-04
9.943417e-05
5.027884e-05
1.880933e-05
-7.030739e-07
1.000000e+00
1.000000e+00
1.000000e+00
9.999971e-01
9.999775e-01
9.999246e-01
9.998767e-01
1.000043e+00
1.000867e+00
1.002832e+00
1.005871e+00
1.008504e+00
1.007147e+00
9.961299e-01
9.687133e-01
9.189490e-01
8.437497e-01
7.443665e-01
6.266574e-01
5.000000e-01
3.752172e-01
2.622244e-01
1.681357e-01
9.631757e-02
4.648981e-02
1.562972e-02
-7.525692e-04
-7.393690e-03
-8.397734e-03
-6.797323e-03
-4.499855e-03
-2.481380e-03
-1.080233e-03
-2.790304e-04
8.389243e-05
1.871052e-04
1.684378e-04
1.124485e-04
5.987376e-05
1.520396e-05
1.000000e+00
1.000000e+00
1.000000e+00
1.000000e+00
9.999929e-01
9.999624e-01
9.998999e-01
9.998758e-01
1.000144e+00
1.001157e+00
1.003318e+00
1.006381e+00
1.008662e+00
1.006479e+00
9.942633e-01
9.655953e-01
9.149553e-01
8.396216e-01
7.409912e-01
6.247828e-01
5.000000e-01
3.769979e-01
2.652931e-01
1.717877e-01
9.985688e-02
4.940322e-02
1.766751e-02
4.088941e-04
-6.938506e-03
-8.406468e-03
-7.037950e-03
-4.799203e-03
-2.738852e-03
-1.257136e-03
-3.770570e-04
4.413328e-05
1.816022e-04
1.780033e-04
1.247563e-04
5.374825e-05
1.000000e+00
1.000000e+00
1.000000e+00
1.000001e+00
9.999990e-01
9.999860e-01
9.999439e-01
9.998773e-01
9.998901e-01
1.000272e+00
1.001469e+00
1.003795e+00
1.006834e+00
1.008724e+00
1.005713e+00
9.923473e-01
9.625131e-01
9.110833e-01
8.356638e-01
7.377756e-01
6.230021e-01
5.000000e-01
3.786926e-01
2.682264e-01
1.753021e-01
1.032952e-01
5.227108e-02
1.971219e-02
1.611920e-03
-6.429367e-03
-8.367074e-03
-7.246135e-03
-5.083389e-03
-2.994570e-03
-1.439817e-03
-4.831496e-04
-2.638082e-06
1.714896e-04
1.847817e-04
1.181293e-04
1.000000e+00
1.000000e+00
1.000000e+00
1.000000e+00
1.000001e+00
9.999968e-01
9.999762e-01
9.999233e-01
9.998593e-01
9.999209e-01
1.000425e+00
1.001799e+00
1.004259e+00
1.007228e+00
1.008696e+00
1.004859e+00
9.903919e-01
9.594699e-01
9.073275e-01
8.318643e-01
7.347069e-01
6.213074e-01
5.000000e-01
3.803083e-01
2.710344e-01
1.786877e-01
1.066372e-01
5.509296e-02
2.175976e-02
2.851401e-03
-5.870403e-03
-8.281649e-03
-7.421987e-03
-5.351261e-03
-3.247004e-03
-1.627015e-03
-5.965980e-04
-5.624371e-05
1.563058e-04
1.865864e-04
1.000000e+00
1.000000e+00
1.000000e+00
1.000000e+00
1.000001e+00
1.000000e+00
9.999931e-01
9.999636e-01
9.999017e-01
9.998478e-01
9.999691e-01
1.000600e+00
1.002139e+00
1.004702e+00
1.007564e+00
1.008582e+00
1.003927e+00
9.884059e-01
9.564683e-01
9.036824e-01
8.282123e-01
7.317736e-01
6.196917e-01
5.000000e-01
3.818513e-01
2.737263e-01
1.819526e-01
1.098871e-01
5.786868e-02
2.380682e-02
4.122752e-03
-5.265472e-03
-8.152295e-03
-7.565798e-03
-5.601892e-03
-3.494785e-03
-1.817535e-03
-7.166645e-04
-1.155683e-04
1.881133e-04
1.000000e+00
1.000000e+00
1.000000e+00
1.000000e+00
1.000000e+00
1.000001e+00
9.999997e-01
9.999874e-01
9.999487e-01
9.998806e-01
9.998445e-01
1.000035e+00
1.000796e+00
1.002487e+00
1.005123e+00
1.007842e+00
1.008390e+00
1.002927e+00
9.863965e-01
9.535102e-01
9.001431e-01
8.246979e-01
7.289656e-01
6.181487e-01
5.000000e-01
3.833269e-01
2.763103e-01
1.851044e-01
1.130490e-01
6.059836e-02
2.585044e-02
5.421852e-03
-4.618173e-03
-7.981101e-03
-7.678010e-03
-5.834553e-03
-3.736699e-03
-2.010172e-03
-8.389296e-04
-1.587869e-05
1.000000e+00
1.000000e+00
1.000000e+00
1.000000e+00
1.000000e+00
1.000001e+00
1.000001e+00
9.999980e-01
9.999798e-01
9.999319e-01
9.998613e-01
9.998505e-01
1.000117e+00
1.001008e+00
1.002836e+00
1.005517e+00
1.008063e+00
1.008124e+00
1.001867e+00
9.843703e-01
9.505968e-01
8.967048e-01
8.213123e-01
7.262737e-01
6.166731e-01
5.000000e-01
3.847403e-01
2.787938e-01
1.881497e-01
1.161268e-01
6.328225e-02
2.788810e-02
6.744992e-03
-3.931861e-03
-7.770120e-03
-7.759184e-03
-6.048681e-03
-3.971463e-03
-2.195289e-03
-6.222678e-04
1.000000e+00
1.000000e+00
1.000000e+00
1.000000e+00
1.000000e+00
1.000000e+00
1.000001e+00
1.000001e+00
9.999952e-01
9.999702e-01
9.999140e-01
9.998449e-01
9.998667e-01
1.000216e+00
1.001234e+00
1.003184e+00
1.005883e+00
1.008228e+00
1.007791e+00
1.000753e+00
9.823325e-01
9.477289e-01
8.933628e-01
8.180474e-01
7.236897e-01
6.152597e-01
5.000000e-01
3.860959e-01
2.811836e-01
1.910947e-01
1.191241e-01
6.592079e-02
2.991766e-02
8.088838e-03
-3.209658e-03
-7.521358e-03
-7.809967e-03
-6.243467e-03
-4.182997e-03
-1.823867e-03
1.000000e+00
1.000000e+00
1.000000e+00
1.000000e+00
1.000000e+00
1.000000e+00
1.000001e+00
1.000002e+00
1.000001e+00
9.999911e-01
9.999588e-01
9.998955e-01
9.998327e-01
9.998936e-01
1.000330e+00
1.001471e+00
1.003526e+00
1.006220e+00
1.008339e+00
1.007394e+00
9.995911e-01
9.802878e-01
9.449070e-01
8.901129e-01
8.148956e-01
7.212062e-01
6.139041e-01
5.000000e-01
3.873978e-01
2.834857e-01
1.939452e-01
1.220443e-01
6.851454e-02
3.193729e-02
9.450385e-03
-2.454468e-03
-7.236748e-03
-7.830463e-03
-6.397368e-03
-3.677011e-03
1.000000e+00
1.000000e+00
1.000000e+00
1.000000e+00
1.000000e+00
1.000000e+00
1.000000e+00
1.000001e+00
1.000002e+00
9.999998e-01
9.999857e-01
9.999458e-01
9.998774e-01
9.998254e-01
9.999315e-01
1.000457e+00
1.001716e+00
1.003862e+00
1.006524e+00
1.008398e+00
1.006939e+00
9.983881e-01
9.782402e-01
9.421313e-01
8.869510e-01
8.118503e-01
7.188164e-01
6.126022e-01
5.000000e-01
3.886495e-01
2.857056e-01
1.967064e-01
1.248909e-01
7.106414e-02
3.394543e-02
1.082693e-02
-1.668967e-03
-6.917423e-03
-7.798957e-03
-5.905286e-03
1.000000e+00
1.000000e+00
1.000000e+00
1.000000e+00
1.000000e+00
1.000000e+00
1.000000e+00
1.000000e+00
1.000001e+00
1.000002e+00
9.999980e-01
9.999788e-01
9.999316e-01
9.998603e-01
9.998237e-01
9.999803e-01
1.000598e+00
1.001968e+00
1.004187e+00
1.006797e+00
1.008406e+00
1.006429e+00
9.971486e-01
9.761932e-01
9.394016e-01
8.838732e-01
8.089053e-01
7.165143e-01
6.113505e-01
5.000000e-01
3.898544e-01
2.878485e-01
1.993831e-01
1.276667e-01
7.357030e-02
3.594075e-02
1.221605e-02
-8.550632e-04
-6.553476e-03
-7.678909e-03
1.000000e+00
1.000000e+00
1.000000e+00
1.000000e+00
1.000000e+00
1.000000e+00
1.000000e+00
1.000000e+00
1.000001e+00
1.000002e+00
1.000002e+00
9.999954e-01
9.999705e-01
9.999165e-01
9.998449e-01
9.998284e-01
1.000040e+00
1.000749e+00
1.002224e+00
1.004500e+00
1.007038e+00
1.008367e+00
1.005870e+00
9.958772e-01
9.741496e-01
9.367178e-01
8.808759e-01
8.060548e-01
7.142944e-01
6.101456e-01
5.000000e-01
3.910154e-01
2.899189e-01
2.019798e-01
1.303748e-01
7.603380e-02
3.792215e-02
1.361545e-02
-3.531492e-05
-7.440587e-03
1.000000e+00
1.000000e+00
1.000000e+00
1.000000e+00
1.000000e+00
1.000000e+00
1.000000e+00
1.000000e+00
1.000000e+00
1.000001e+00
1.000002e+00
1.000002e+00
9.999917e-01
9.999610e-01
9.999010e-01
9.998318e-01
9.998397e-01
1.000110e+00
1.000910e+00
1.002481e+00
1.004799e+00
1.007246e+00
1.008282e+00
1.005265e+00
9.945781e-01
9.721119e-01
9.340792e-01
8.779557e-01
8.032936e-01
7.121515e-01
6.089846e-01
5.000000e-01
3.921354e-01
2.919211e-01
2.045007e-01
1.330180e-01
7.845542e-02
3.988695e-02
1.494008e-02
-2.862441e-03
1.000000e+00
1.000000e+00
1.000000e+00
1.000000e+00
1.000000e+00
1.000000e+00
1.000000e+00
1.000000e+00
1.000000e+00
1.000001e+00
1.000002e+00
1.000003e+00
1.000001e+00
9.999871e-01
9.999503e-01
9.998855e-01
9.998216e-01
9.998580e-01
1.000190e+00
1.001080e+00
1.002739e+00
1.005083e+00
1.007422e+00
1.008152e+00
1.004618e+00
9.932550e-01
9.700823e-01
9.314855e-01
8.751091e-01
8.006169e-01
7.100811e-01
6.078646e-01
5.000000e-01
3.932168e-01
2.938589e-01
2.069496e-01
1.355987e-01
8.083147e-02
4.164987e-02
8.997303e-03
1.000000e+00
1.000000e+00
1.000000e+00
1.000000e+00
1.000000e+00
1.000000e+00
1.000000e+00
1.000000e+00
1.000000e+00
1.000000e+00
1.000001e+00
1.000002e+00
1.000003e+00
9.999991e-01
9.999815e-01
9.999387e-01
9.998704e-01
9.998148e-01
9.998835e-01
1.000279e+00
1.001257e+00
1.002995e+00
1.005351e+00
1.007566e+00
1.007981e+00
1.003932e+00
9.919112e-01
9.680627e-01
9.289359e-01
8.723333e-01
7.980202e-01
7.080789e-01
6.067832e-01
5.000000e-01
3.942619e-01
2.957359e-01
2.093298e-01
1.381106e-01
8.283504e-02
3.131635e-02
1.000000e+00
1.000000e+00
1.000000e+00
1.000000e+00
1.000000e+00
1.000000e+00
1.000000e+00
1.000000e+00
1.000000e+00
1.000000e+00
1.000000e+00
1.000001e+00
1.000002e+00
1.000003e+00
9.999969e-01
9.999749e-01
9.999264e-01
9.998561e-01
9.998118e-01
9.999161e-01
1.000377e+00
1.001440e+00
1.003247e+00
1.005602e+00
1.007678e+00
1.007770e+00
1.003210e+00
9.905496e-01
9.660546e-01
9.264297e-01
8.696252e-01
7.954993e-01
7.061411e-01
6.057381e-01
5.000000e-01
3.952727e-01
2.975550e-01
2.116303e-01
1.400470e-01
6.695454e-02
1.000000e+00
1.000000e+00
1.000000e+00
1.000000e+00
1.000000e+00
1.000000e+00
1.000000e+00
1.000000e+00
1.000000e+00
1.000000e+00
1.000000e+00
1.000000e+00
1.000001e+00
1.000003e+00
1.000002e+00
9.999940e-01
9.999673e-01
9.999136e-01
9.998430e-01
9.998129e-01
9.999559e-01
1.000483e+00
1.001627e+00
1.003495e+00
1.005835e+00
1.007759e+00
1.007521e+00
1.002454e+00
9.891731e-01
9.640592e-01
9.239662e-01
8.669820e-01
7.930504e-01
7.042641e-01
6.047273e-01
5.000000e-01
3.962506e-01
2.992981e-01
2.131371e-01
1.178346e-01
1.000000e+00
1.000000e+00
1.000000e+00
1.000000e+00
1.000000e+00
1.000000e+00
1.000000e+00
1.000000e+00
1.000000e+00
1.000000e+00
1.000000e+00
1.000000e+00
1.000001e+00
1.000002e+00
1.000003e+00
1.000002e+00
9.999905e-01
9.999589e-01
9.999006e-01
9.998316e-01
9.998184e-01
1.000003e+00
1.000597e+00
1.001818e+00
1.003737e+00
1.006049e+00
1.007810e+00
1.007237e+00
1.001669e+00
9.877839e-01
9.620779e-01
9.215446e-01
8.644013e-01
7.906702e-01
7.024450e-01
6.037494e-01
5.000000e-01
3.971697e-01
3.000366e-01
1.844072e-01
1.000000e+00
1.000000e+00
1.000000e+00
1.000000e+00
1.000000e+00
1.000000e+00
1.000000e+00
1.000000e+00
1.000000e+00
1.000000e+00
1.000000e+00
1.000000e+00
1.000000e+00
1.000001e+00
1.000002e+00
1.000003e+00
1.000001e+00
9.999862e-01
9.999497e-01
9.998876e-01
9.998220e-01
9.998285e-01
1.000056e+00
1.000717e+00
1.002010e+00
1.003971e+00