# vtk DataFile Version 3.0
9.SOU_1Pe = 1000,Grid 81x81,165000.vtk
ASCII
DATASET STRUCTURED_GRID
DIMENSIONS 81 81 1
POINTS 6561 double
0.000000e+00 0.000000e+00 0.0
1.250000e-02 0.000000e+00 0.0
2.500000e-02 0.000000e+00 0.0
3.750000e-02 0.000000e+00 0.0
5.000000e-02 0.000000e+00 0.0
6.250000e-02 0.000000e+00 0.0
7.500000e-02 0.000000e+00 0.0
8.750000e-02 0.000000e+00 0.0
1.000000e-01 0.000000e+00 0.0
1.125000e-01 0.000000e+00 0.0
1.250000e-01 0.000000e+00 0.0
1.375000e-01 0.000000e+00 0.0
1.500000e-01 0.000000e+00 0.0
1.625000e-01 0.000000e+00 0.0
1.750000e-01 0.000000e+00 0.0
1.875000e-01 0.000000e+00 0.0
2.000000e-01 0.000000e+00 0.0
2.125000e-01 0.000000e+00 0.0
2.250000e-01 0.000000e+00 0.0
2.375000e-01 0.000000e+00 0.0
2.500000e-01 0.000000e+00 0.0
2.625000e-01 0.000000e+00 0.0
2.750000e-01 0.000000e+00 0.0
2.875000e-01 0.000000e+00 0.0
3.000000e-01 0.000000e+00 0.0
3.125000e-01 0.000000e+00 0.0
3.250000e-01 0.000000e+00 0.0
3.375000e-01 0.000000e+00 0.0
3.500000e-01 0.000000e+00 0.0
3.625000e-01 0.000000e+00 0.0
3.750000e-01 0.000000e+00 0.0
3.875000e-01 0.000000e+00 0.0
4.000000e-01 0.000000e+00 0.0
4.125000e-01 0.000000e+00 0.0
4.250000e-01 0.000000e+00 0.0
4.375000e-01 0.000000e+00 0.0
4.500000e-01 0.000000e+00 0.0
4.625000e-01 0.000000e+00 0.0
4.750000e-01 0.000000e+00 0.0
4.875000e-01 0.000000e+00 0.0
5.000000e-01 0.000000e+00 0.0
5.125000e-01 0.000000e+00 0.0
5.250000e-01 0.000000e+00 0.0
5.375000e-01 0.000000e+00 0.0
5.500000e-01 0.000000e+00 0.0
5.625000e-01 0.000000e+00 0.0
5.750000e-01 0.000000e+00 0.0
5.875000e-01 0.000000e+00 0.0
6.000000e-01 0.000000e+00 0.0
6.125000e-01 0.000000e+00 0.0
6.250000e-01 0.000000e+00 0.0
6.375000e-01 0.000000e+00 0.0
6.500000e-01 0.000000e+00 0.0
6.625000e-01 0.000000e+00 0.0
6.750000e-01 0.000000e+00 0.0
6.875000e-01 0.000000e+00 0.0
7.000000e-01 0.000000e+00 0.0
7.125000e-01 0.000000e+00 0.0
7.250000e-01 0.000000e+00 0.0
7.375000e-01 0.000000e+00 0.0
7.500000e-01 0.000000e+00 0.0
7.625000e-01 0.000000e+00 0.0
7.750000e-01 0.000000e+00 0.0
7.875000e-01 0.000000e+00 0.0
8.000000e-01 0.000000e+00 0.0
8.125000e-01 0.000000e+00 0.0
8.250000e-01 0.000000e+00 0.0
8.375000e-01 0.000000e+00 0.0
8.500000e-01 0.000000e+00 0.0
8.625000e-01 0.000000e+00 0.0
8.750000e-01 0.000000e+00 0.0
8.875000e-01 0.000000e+00 0.0
9.000000e-01 0.000000e+00 0.0
9.125000e-01 0.000000e+00 0.0
9.250000e-01 0.000000e+00 0.0
9.375000e-01 0.000000e+00 0.0
9.500000e-01 0.000000e+00 0.0
9.625000e-01 0.000000e+00 0.0
9.750000e-01 0.000000e+00 0.0
9.875000e-01 0.000000e+00 0.0
1.000000e+00 0.000000e+00 0.0
0.000000e+00 1.250000e-02 0.0
1.250000e-02 1.250000e-02 0.0
2.500000e-02 1.250000e-02 0.0
3.750000e-02 1.250000e-02 0.0
5.000000e-02 1.250000e-02 0.0
6.250000e-02 1.250000e-02 0.0
7.500000e-02 1.250000e-02 0.0
8.750000e-02 1.250000e-02 0.0
1.000000e-01 1.250000e-02 0.0
1.125000e-01 1.250000e-02 0.0
1.250000e-01 1.250000e-02 0.0
1.375000e-01 1.250000e-02 0.0
1.500000e-01 1.250000e-02 0.0
1.625000e-01 1.250000e-02 0.0
1.750000e-01 1.250000e-02 0.0
1.875000e-01 1.250000e-02 0.0
2.000000e-01 1.250000e-02 0.0
2.125000e-01 1.250000e-02 0.0
2.250000e-01 1.250000e-02 0.0
2.375000e-01 1.250000e-02 0.0
2.500000e-01 1.250000e-02 0.0
2.625000e-01 1.250000e-02 0.0
2.750000e-01 1.250000e-02 0.0
2.875000e-01 1.250000e-02 0.0
3.000000e-01 1.250000e-02 0.0
3.125000e-01 1.250000e-02 0.0
3.250000e-01 1.250000e-02 0.0
3.375000e-01 1.250000e-02 0.0
3.500000e-01 1.250000e-02 0.0
3.625000e-01 1.250000e-02 0.0
3.750000e-01 1.250000e-02 0.0
3.875000e-01 1.250000e-02 0.0
4.000000e-01 1.250000e-02 0.0
4.125000e-01 1.250000e-02 0.0
4.250000e-01 1.250000e-02 0.0
4.375000e-01 1.250000e-02 0.0
4.500000e-01 1.250000e-02 0.0
4.625000e-01 1.250000e-02 0.0
4.750000e-01 1.250000e-02 0.0
4.875000e-01 1.250000e-02 0.0
5.000000e-01 1.250000e-02 0.0
5.125000e-01 1.250000e-02 0.0
5.250000e-01 1.250000e-02 0.0
5.375000e-01 1.250000e-02 0.0
5.500000e-01 1.250000e-02 0.0
5.625000e-01 1.250000e-02 0.0
5.750000e-01 1.250000e-02 0.0
5.875000e-01 1.250000e-02 0.0
6.000000e-01 1.250000e-02 0.0
6.125000e-01 1.250000e-02 0.0
6.250000e-01 1.250000e-02 0.0
6.375000e-01 1.250000e-02 0.0
6.500000e-01 1.250000e-02 0.0
6.625000e-01 1.250000e-02 0.0
6.750000e-01 1.250000e-02 0.0
6.875000e-01 1.250000e-02 0.0
7.000000e-01 1.250000e-02 0.0
7.125000e-01 1.250000e-02 0.0
7.250000e-01 1.250000e-02 0.0
7.375000e-01 1.250000e-02 0.0
7.500000e-01 1.250000e-02 0.0
7.625000e-01 1.250000e-02 0.0
7.750000e-01 1.250000e-02 0.0
7.875000e-01 1.250000e-02 0.0
8.000000e-01 1.250000e-02 0.0
8.125000e-01 1.250000e-02 0.0
8.250000e-01 1.250000e-02 0.0
8.375000e-01 1.250000e-02 0.0
8.500000e-01 1.250000e-02 0.0
8.625000e-01 1.250000e-02 0.0
8.750000e-01 1.250000e-02 0.0
8.875000e-01 1.250000e-02 0.0
9.000000e-01 1.250000e-02 0.0
9.125000e-01 1.250000e-02 0.0
9.250000e-01 1.250000e-02 0.0
9.375000e-01 1.250000e-02 0.0
9.500000e-01 1.250000e-02 0.0
9.625000e-01 1.250000e-02 0.0
9.750000e-01 1.250000e-02 0.0
9.875000e-01 1.250000e-02 0.0
1.000000e+00 1.250000e-02 0.0
0.000000e+00 2.500000e-02 0.0
1.250000e-02 2.500000e-02 0.0
2.500000e-02 2.500000e-02 0.0
3.750000e-02 2.500000e-02 0.0
5.000000e-02 2.500000e-02 0.0
6.250000e-02 2.500000e-02 0.0
7.500000e-02 2.500000e-02 0.0
8.750000e-02 2.500000e-02 0.0
1.000000e-01 2.500000e-02 0.0
1.125000e-01 2.500000e-02 0.0
1.250000e-01 2.500000e-02 0.0
1.375000e-01 2.500000e-02 0.0
1.500000e-01 2.500000e-02 0.0
1.625000e-01 2.500000e-02 0.0
1.750000e-01 2.500000e-02 0.0
1.875000e-01 2.500000e-02 0.0
2.000000e-01 2.500000e-02 0.0
2.125000e-01 2.500000e-02 0.0
2.250000e-01 2.500000e-02 0.0
2.375000e-01 2.500000e-02 0.0
2.500000e-01 2.500000e-02 0.0
2.625000e-01 2.500000e-02 0.0
2.750000e-01 2.500000e-02 0.0
2.875000e-01 2.500000e-02 0.0
3.000000e-01 2.500000e-02 0.0
3.125000e-01 2.500000e-02 0.0
3.250000e-01 2.500000e-02 0.0
3.375000e-01 2.500000e-02 0.0
3.500000e-01 2.500000e-02 0.0
3.625000e-01 2.500000e-02 0.0
3.750000e-01 2.500000e-02 0.0
3.875000e-01 2.500000e-02 0.0
4.000000e-01 2.500000e-02 0.0
4.125000e-01 2.500000e-02 0.0
4.250000e-01 2.500000e-02 0.0
4.375000e-01 2.500000e-02 0.0
4.500000e-01 2.500000e-02 0.0
4.625000e-01 2.500000e-02 0.0
4.750000e-01 2.500000e-02 0.0
4.875000e-01 2.500000e-02 0.0
5.000000e-01 2.500000e-02 0.0
5.125000e-01 2.500000e-02 0.0
5.250000e-01 2.500000e-02 0.0
5.375000e-01 2.500000e-02 0.0
5.500000e-01 2.500000e-02 0.0
5.625000e-01 2.500000e-02 0.0
5.750000e-01 2.500000e-02 0.0
5.875000e-01 2.500000e-02 0.0
6.000000e-01 2.500000e-02 0.0
6.125000e-01 2.500000e-02 0.0
6.250000e-01 2.500000e-02 0.0
6.375000e-01 2.500000e-02 0.0
6.500000e-01 2.500000e-02 0.0
6.625000e-01 2.500000e-02 0.0
6.750000e-01 2.500000e-02 0.0
6.875000e-01 2.500000e-02 0.0
7.000000e-01 2.500000e-02 0.0
7.125000e-01 2.500000e-02 0.0
7.250000e-01 2.500000e-02 0.0
7.375000e-01 2.500000e-02 0.0
7.500000e-01 2.500000e-02 0.0
7.625000e-01 2.500000e-02 0.0
7.750000e-01 2.500000e-02 0.0
7.875000e-01 2.500000e-02 0.0
8.000000e-01 2.500000e-02 0.0
8.125000e-01 2.500000e-02 0.0
8.250000e-01 2.500000e-02 0.0
8.375000e-01 2.500000e-02 0.0
8.500000e-01 2.500000e-02 0.0
8.625000e-01 2.500000e-02 0.0
8.750000e-01 2.500000e-02 0.0
8.875000e-01 2.500000e-02 0.0
9.000000e-01 2.500000e-02 0.0
9.125000e-01 2.500000e-02 0.0
9.250000e-01 2.500000e-02 0.0
9.375000e-01 2.500000e-02 0.0
9.500000e-01 2.500000e-02 0.0
9.625000e-01 2.500000e-02 0.0
9.750000e-01 2.500000e-02 0.0
9.875000e-01 2.500000e-02 0.0
1.000000e+00 2.500000e-02 0.0
0.000000e+00 3.750000e-02 0.0
1.250000e-02 3.750000e-02 0.0
2.500000e-02 3.750000e-02 0.0
3.750000e-02 3.750000e-02 0.0
5.000000e-02 3.750000e-02 0.0
6.250000e-02 3.750000e-02 0.0
7.500000e-02 3.750000e-02 0.0
8.750000e-02 3.750000e-02 0.0
1.000000e-01 3.750000e-02 0.0
1.125000e-01 3.750000e-02 0.0
1.250000e-01 3.750000e-02 0.0
1.375000e-01 3.750000e-02 0.0
1.500000e-01 3.750000e-02 0.0
1.625000e-01 3.750000e-02 0.0
1.750000e-01 3.750000e-02 0.0
1.875000e-01 3.750000e-02 0.0
2.000000e-01 3.750000e-02 0.0
2.125000e-01 3.750000e-02 0.0
2.250000e-01 3.750000e-02 0.0
2.375000e-01 3.750000e-02 0.0
2.500000e-01 3.750000e-02 0.0
2.625000e-01 3.750000e-02 0.0
2.750000e-01 3.750000e-02 0.0
2.875000e-01 3.750000e-02 0.0
3.000000e-01 3.750000e-02 0.0
3.125000e-01 3.750000e-02 0.0
3.250000e-01 3.750000e-02 0.0
3.375000e-01 3.750000e-02 0.0
3.500000e-01 3.750000e-02 0.0
3.625000e-01 3.750000e-02 0.0
3.750000e-01 3.750000e-02 0.0
3.875000e-01 3.750000e-02 0.0
4.000000e-01 3.750000e-02 0.0
4.125000e-01 3.750000e-02 0.0
4.250000e-01 3.750000e-02 0.0
4.375000e-01 3.750000e-02 0.0
4.500000e-01 3.750000e-02 0.0
4.625000e-01 3.750000e-02 0.0
4.750000e-01 3.750000e-02 0.0
4.875000e-01 3.750000e-02 0.0
5.000000e-01 3.750000e-02 0.0
5.125000e-01 3.750000e-02 0.0
5.250000e-01 3.750000e-02 0.0
5.375000e-01 3.750000e-02 0.0
5.500000e-01 3.750000e-02 0.0
5.625000e-01 3.750000e-02 0.0
5.750000e-01 3.750000e-02 0.0
5.875000e-01 3.750000e-02 0.0
6.000000e-01 3.750000e-02 0.0
6.125000e-01 3.750000e-02 0.0
6.250000e-01 3.750000e-02 0.0
6.375000e-01 3.750000e-02 0.0
6.500000e-01 3.750000e-02 0.0
6.625000e-01 3.750000e-02 0.0
6.750000e-01 3.750000e-02 0.0
6.875000e-01 3.750000e-02 0.0
7.000000e-01 3.750000e-02 0.0
7.125000e-01 3.750000e-02 0.0
7.250000e-01 3.750000e-02 0.0
7.375000e-01 3.750000e-02 0.0
7.500000e-01 3.750000e-02 0.0
7.625000e-01 3.750000e-02 0.0
7.750000e-01 3.750000e-02 0.0
7.875000e-01 3.750000e-02 0.0
8.000000e-01 3.750000e-02 0.0
8.125000e-01 3.750000e-02 0.0
8.250000e-01 3.750000e-02 0.0
8.375000e-01 3.750000e-02 0.0
8.500000e-01 3.750000e-02 0.0
8.625000e-01 3.750000e-02 0.0
8.750000e-01 3.750000e-02 0.0
8.875000e-01 3.750000e-02 0.0
9.000000e-01 3.750000e-02 0.0
9.125000e-01 3.750000e-02 0.0
9.250000e-01 3.750000e-02 0.0
9.375000e-01 3.750000e-02 0.0
9.500000e-01 3.750000e-02 0.0
9.625000e-01 3.750000e-02 0.0
9.750000e-01 3.750000e-02 0.0
9.875000e-01 3.750000e-02 0.0
1.000000e+00 3.750000e-02 0.0
0.000000e+00 5.000000e-02 0.0
1.250000e-02 5.000000e-02 0.0
2.500000e-02 5.000000e-02 0.0
3.750000e-02 5.000000e-02 0.0
[...]
CELL_DATA 6400
SCALARS Temperature double 1
LOOKUP_TABLE default
5.000000e-01
3.387405e-01
1.244082e-01
2.748263e-02
5.063133e-04
-2.820461e-03
-1.582808e-03
-5.646557e-04
-1.525321e-04
-3.354852e-05
-7.130632e-06
-2.020082e-06
-6.819523e-07
-1.249124e-07
7.652077e-08
1.000733e-07
6.783803e-08
3.534885e-08
1.560284e-08
6.066679e-09
2.098113e-09
6.267766e-10
1.395805e-10
2.367148e-12
-2.339146e-11
-1.975812e-11
-1.198113e-11
-6.202966e-12
-2.874436e-12
-1.208043e-12
-4.574864e-13
-1.509468e-13
-3.876988e-14
-3.651131e-15
4.302169e-15
4.267961e-15
2.733463e-15
1.463392e-15
6.978224e-16
3.020711e-16
1.183609e-16
4.084351e-17
1.136019e-17
1.624326e-18
-8.380633e-19
-1.019041e-18
-6.935728e-19
-3.849890e-19
-1.888337e-19
-8.389208e-20
-3.379297e-20
-1.207919e-20
-3.570796e-21
-6.451195e-22
1.563201e-22
2.589509e-22
1.882066e-22
1.082135e-22
5.448188e-23
2.477735e-23
1.022807e-23
3.769762e-24
1.172374e-24
2.478649e-25
-2.203291e-26
-6.786464e-26
-5.325448e-26
-3.175740e-26
-1.640048e-26
-7.624291e-27
-3.218753e-27
-1.219343e-27
-3.960212e-28
-9.391209e-29
-9.389873e-31
1.794697e-29
1.547413e-29
9.596097e-30
5.055459e-30
1.775024e-30
6.612595e-01
5.000000e-01
3.260664e-01
1.604876e-01
5.751564e-02
1.222739e-02
-1.397757e-03
-3.040523e-03
-1.896469e-03
-8.449712e-04
-3.017207e-04
-8.699287e-05
-1.816448e-05
-7.556688e-07
1.969011e-06
1.547118e-06
8.715151e-07
4.299001e-07
1.942062e-07
8.071017e-08
3.041491e-08
1.000753e-08
2.579298e-09
2.714068e-10
-2.481842e-10
-2.506857e-10
-1.586908e-10
-8.357473e-11
-3.918012e-11
-1.668038e-11
-6.429157e-12
-2.179707e-12
-5.920699e-13
-7.847467e-14
4.718875e-14
5.414930e-14
3.606365e-14
1.969770e-14
9.522380e-15
4.170487e-15
1.654549e-15
5.806615e-16
1.668393e-16
2.753233e-17
-9.230730e-18
-1.309496e-17
-9.209629e-18
-5.195345e-18
-2.576511e-18
-1.155400e-18
-4.699288e-19
-1.700862e-19
-5.140882e-20
-1.002813e-20
1.627051e-21
3.346684e-21
2.509409e-21
1.463421e-21
7.436668e-22
3.408148e-22
1.417806e-22
5.276235e-23
1.667422e-23
3.692234e-24
-1.722390e-25
-8.785820e-25
-7.118108e-25
-4.300836e-25
-2.239416e-25
-1.047937e-25
-4.452610e-26
-1.699830e-26
-5.588010e-27
-1.365910e-27
-4.781433e-29
2.319680e-28
2.071238e-28
1.300835e-28
6.905149e-29
2.449467e-29
8.755918e-01
6.739336e-01
5.000000e-01
3.247837e-01
1.747439e-01
7.468295e-02
2.275059e-02
2.297005e-03
-2.892968e-03
-2.724695e-03
-1.554966e-03
-6.887370e-04
-2.464154e-04
-6.733185e-05
-9.389483e-06
3.913546e-06
4.404164e-06
2.667873e-06
1.307462e-06
5.650428e-07
2.204894e-07
7.695119e-08
2.271462e-08
4.528096e-09
-4.530072e-10
-1.200044e-09
-8.969894e-10
-5.118682e-10
-2.529087e-10
-1.122536e-10
-4.505185e-11
-1.607441e-11
-4.795237e-12
-9.321804e-13
1.356390e-13
2.896180e-13
2.148677e-13
1.235060e-13
6.177477e-14
2.783367e-14
1.136498e-14
4.137566e-15
1.268168e-15
2.619213e-16
-2.614532e-17
-7.278056e-17
-5.604192e-17
-3.293284e-17
-1.677344e-17
-7.688365e-18
-3.196473e-18
-1.189055e-18
-3.763111e-19
-8.423536e-20
2.799786e-21
1.893067e-20
1.545030e-20
9.335901e-21
4.851750e-21
2.263918e-21
9.585943e-22
3.644496e-22
1.191781e-22
2.886466e-23
8.593521e-25
-4.997421e-24
-4.413204e-24
-2.755056e-24
-1.463146e-24
-6.953241e-25
-2.998283e-25
-1.164606e-25
-3.930454e-26
-1.021744e-26
-8.531461e-28
1.313742e-27
1.289269e-27
8.355756e-28
4.516581e-28
1.640869e-28
9.725174e-01
8.395124e-01
6.752163e-01
5.000000e-01
3.293762e-01
1.870140e-01
8.844602e-02
3.241104e-02
6.830617e-03
-1.774042e-03
-3.053742e-03
-2.153959e-03
-1.124188e-03
-4.731329e-04
-1.582963e-04
-3.562460e-05
1.161774e-06
7.269469e-06
5.409960e-06
2.912070e-06
1.317347e-06
5.203509e-07
1.782503e-07
4.939906e-08
7.719097e-09
-2.656600e-09
-3.538083e-09
-2.383779e-09
-1.290210e-09
-6.127376e-10
-2.617649e-10
-1.003266e-10
-3.338495e-11
-8.608617e-12
-7.939489e-13
9.776260e-13
9.620566e-13
6.124711e-13
3.253307e-13
1.534770e-13
6.544220e-14
2.506830e-14
8.318664e-15
2.111209e-15
1.561072e-16
-2.790136e-16
-2.644971e-16
-1.678013e-16
-8.945368e-17
-4.247133e-17
-1.825639e-17
-7.061486e-18
-2.372819e-18
-6.152336e-19
-5.294545e-20
7.631900e-20
7.490775e-20
4.827920e-20
2.605378e-20
1.251203e-20
5.442754e-21
2.134626e-21
7.311381e-22
1.968087e-22
2.191448e-23
-2.046637e-23
-2.172286e-23
-1.437625e-23
-7.890326e-24
-3.843004e-24
-1.695053e-24
-6.753981e-25
-2.364535e-25
-6.642095e-26
-9.325132e-27
5.327910e-27
6.400162e-27
4.385369e-27
2.442775e-27
9.213479e-28
9.994937e-01
9.424844e-01
8.252561e-01
6.706238e-01
5.000000e-01
3.354320e-01
1.982118e-01
1.004284e-01
4.139040e-02
1.173074e-02
-3.534205e-06
-2.931027e-03
-2.575792e-03
-1.547833e-03
-7.421857e-04
-2.889249e-04
-8.441685e-05
-1.064014e-05
7.976562e-06
8.433218e-06
5.214846e-06
2.572685e-06
1.080283e-06
3.867400e-07
1.106839e-07
1.791444e-08
-5.800787e-09
-7.920709e-09
-5.322195e-09
-2.850729e-09
-1.332237e-09
-5.564169e-10
-2.062179e-10
-6.467872e-11
-1.428417e-11
4.856318e-13
3.123720e-12
2.496956e-12
1.474951e-12
7.470468e-13
3.382199e-13
1.379355e-13
4.979516e-14
1.491426e-14
2.821575e-15
-5.339260e-16
-9.964689e-16
-7.319955e-16
-4.202256e-16
-2.101234e-16
-9.450170e-17
-3.837357e-17
-1.378402e-17
-4.081754e-18
-7.324797e-19
1.852143e-19
3.007090e-19
2.175364e-19
1.245312e-19
6.234408e-20
2.812850e-20
1.147420e-20
4.146654e-21
1.239039e-21
2.276843e-22
-5.291341e-23
-9.013374e-23
-6.598220e-23
-3.809128e-23
-1.921783e-23
-8.740666e-24
-3.598444e-24
-1.316176e-24
-4.012751e-25
-7.857291e-26
1.330637e-26
2.703541e-26
2.035781e-26
1.186934e-26
4.717721e-27
1.002820e+00
9.877726e-01
9.253170e-01
8.129860e-01
6.645680e-01
5.000000e-01
3.415033e-01
2.084021e-01
1.112059e-01
4.983718e-02
1.680643e-02
2.227261e-03
-2.418988e-03
-2.796461e-03
-1.918465e-03
-1.028102e-03
-4.512868e-04
-1.568324e-04
-3.462397e-05
4.237174e-06
1.067456e-05
7.918940e-06
4.345636e-06
1.981217e-06
7.644153e-07
2.386504e-07
4.757840e-08
-6.612350e-09
-1.427935e-08
-1.031237e-08
-5.684766e-09
-2.686334e-09
-1.121149e-09
-4.101843e-10
-1.242751e-10
-2.433109e-11
3.610509e-12
7.632125e-12
5.627597e-12
3.201892e-12
1.576604e-12
6.939335e-13
2.733132e-13
9.357129e-14
2.510931e-14
2.804461e-15
-2.542020e-15
-2.677050e-15
-1.748879e-15
-9.445997e-16
-4.511651e-16
-1.941574e-16
-7.481632e-17
-2.484496e-17
-6.216349e-18
-3.483761e-19
9.317244e-19
8.554324e-19
5.386158e-19
2.861365e-19
1.354009e-19
5.789638e-20
2.217333e-20
7.294555e-21
1.778956e-21
5.879978e-23
-3.038245e-22
-2.694739e-22
-1.682331e-22
-8.916160e-23
-4.219845e-23
-1.807195e-23
-6.939204e-24
-2.291441e-24
-5.625218e-25
-2.052145e-26
9.504759e-26
8.501216e-26
5.310818e-26
2.265115e-26
1.001583e+00
1.001398e+00
9.772494e-01
9.115540e-01
8.017882e-01
6.584967e-01
5.000000e-01
3.471880e-01
2.176709e-01
1.210550e-01
5.783960e-02
2.195906e-02
4.793513e-03
-1.576534e-03
-2.813158e-03
-2.210075e-03
-1.308960e-03
-6.351206e-04
-2.510750e-04
-7.242689e-05
-5.906404e-06
1.091064e-05
1.051097e-05
6.521048e-06
3.256098e-06
1.367184e-06
4.720848e-07
1.159410e-07
2.032934e-09
-2.099353e-08
-1.756194e-08
-1.030369e-08
-5.048132e-09
-2.154692e-09
-7.983623e-10
-2.424673e-10
-4.631943e-11
8.382503e-12
1.582785e-11
1.147828e-11
6.457379e-12
3.140798e-12
1.360309e-12
5.230536e-13
1.716249e-13
4.141103e-14
1.133979e-15
-7.141843e-15
-6.204757e-15
-3.803822e-15
-1.975540e-15
-9.125356e-16
-3.787994e-16
-1.391147e-16
-4.250435e-17
-8.378385e-18
1.326257e-18
2.774425e-18
2.079919e-18
1.207766e-18
6.087484e-19
2.753279e-19
1.121630e-19
4.027491e-20
1.182087e-20
2.006968e-21
-6.509959e-22
-9.517143e-22
-6.777209e-22
-3.854572e-22
-1.920744e-22
-8.620137e-23
-3.488142e-23
-1.242221e-23
-3.587798e-24
-5.665132e-25
2.361090e-25
3.143496e-25
2.193549e-25
1.029081e-25
1.000565e+00
1.003041e+00
9.977030e-01
9.675890e-01
8.995716e-01
7.915979e-01
6.528120e-01
5.000000e-01
3.524003e-01
2.261193e-01
1.301364e-01
6.545040e-02
2.712857e-02
7.608297e-03
-4.547475e-04
-2.633253e-03
-2.407330e-03
-1.567260e-03
-8.298276e-04
-3.635466e-04
-1.243224e-04
-2.386066e-05
7.956684e-06
1.234637e-05
8.863591e-06
4.874260e-06
2.230382e-06
8.492951e-07
2.470472e-07
3.134656e-08
-2.424012e-08
-2.643206e-08
-1.703227e-08
-8.828793e-09
-3.927900e-09
-1.507276e-09
-4.750927e-10
-9.796352e-11
1.166997e-11
2.873560e-11
2.152566e-11
1.225293e-11
5.979095e-12
2.581455e-12
9.818192e-13
3.138843e-13
6.984272e-14
-3.140752e-15
-1.633131e-14
-1.306192e-14
-7.739836e-15
-3.923976e-15
-1.770739e-15
-7.145669e-16
-2.515713e-16
-7.060334e-17
-9.730946e-18
5.770747e-18
6.795844e-18
4.592512e-18
2.530660e-18
1.226842e-18
5.345562e-19
2.083050e-19
6.995764e-20
1.776993e-20
1.117855e-21
-2.595017e-21
-2.423574e-21
-1.538109e-21
-8.213863e-22
-3.900385e-22
-1.670618e-22
-6.392524e-23
-2.089891e-23
-4.969214e-24
-3.974624e-26
9.620118e-25
8.237006e-25
4.420976e-25
1.000153e+00
1.001896e+00
1.002893e+00
9.931694e-01
9.586096e-01
8.887941e-01
7.823291e-01
6.475997e-01
5.000000e-01
3.571528e-01
2.338455e-01
1.385591e-01
7.270472e-02
3.227479e-02
1.060793e-02
9.029543e-04
-2.268828e-03
-2.502136e-03
-1.789640e-03
-1.025491e-03
-4.896821e-04
-1.895003e-04
-5.042257e-05
7.998320e-07
1.273597e-05
1.104641e-05
6.739088e-06
3.358790e-06
1.400729e-06
4.664873e-07
9.592492e-08
-1.772243e-08
-3.504205e-08
-2.575530e-08
-1.436762e-08
-6.754625e-09
-2.725726e-09
-9.116703e-10
-2.132682e-10
4.238034e-12
4.585403e-11
3.728712e-11
2.195474e-11
1.091454e-11
4.761769e-12
1.818175e-12
5.785240e-13
1.247350e-13
-9.825250e-15
-3.284173e-14
-2.557285e-14
-1.495329e-14
-7.492589e-15
-3.334386e-15
-1.319253e-15
-4.490913e-16
-1.164715e-16
-9.006344e-18
1.553602e-17
1.489586e-17
9.484704e-18
5.047163e-18
2.377018e-18
1.004444e-18
3.759434e-19
1.178736e-19
2.479560e-20
-2.528594e-21
-7.096990e-21
-5.512686e-21
-3.257279e-21
-1.661341e-21
-7.584186e-22
-3.114033e-22
-1.126081e-22
-3.328216e-23
-5.712522e-24
1.819259e-24
2.688240e-24
1.780384e-24
1.000034e+00
1.000845e+00
1.002725e+00
1.001774e+00
9.882693e-01
9.501628e-01
8.789450e-01
7.738807e-01
6.428472e-01
5.000000e-01
3.614872e-01
2.409383e-01
1.464050e-01
7.962905e-02
3.736965e-02
1.374402e-02
2.459706e-03
-1.733941e-03
-2.491271e-03
-1.966259e-03
-1.213328e-03
-6.245344e-04
-2.663659e-04
-8.581498e-05
-1.132781e-05
1.101764e-05
1.268701e-05
8.695554e-06
4.722052e-06
2.142925e-06
7.976592e-07
2.123166e-07
7.153709e-09
-4.003417e-08
-3.567561e-08
-2.179080e-08
-1.093486e-08
-4.682252e-09
-1.678698e-09
-4.482098e-10
-3.317122e-11
6.322536e-11
5.961502e-11
3.713192e-11
1.908373e-11
8.523358e-12
3.315286e-12
1.073192e-12
2.375996e-13
-1.471765e-14
-5.962427e-14
-4.707188e-14
-2.763844e-14
-1.384366e-14
-6.133301e-15
-2.402016e-15
-8.000358e-16
-1.952063e-16
-5.048172e-18
3.466580e-17
3.025645e-17
1.862586e-17
9.692888e-18
4.471871e-18
1.844568e-18
6.665731e-19
1.952941e-19
3.200463e-20
-1.198072e-20
-1.656550e-20
-1.164714e-20
-6.560318e-21
-3.232018e-21
-1.427920e-21
-5.641162e-22
-1.925981e-22
-5.038837e-23
-4.140882e-24
6.614378e-24
6.590352e-24
1.000007e+00
1.000302e+00
1.001555e+00
1.003054e+00
1.000004e+00
9.831936e-01
9.421604e-01
8.698636e-01
7.661545e-01
6.385128e-01
5.000000e-01
3.654504e-01
2.474750e-01
1.537396e-01
8.624546e-02
4.239321e-02
1.697887e-02
4.184092e-03
-1.043211e-03
-2.374789e-03
-2.090146e-03
-1.385841e-03
-7.631579e-04
-3.528049e-04
-1.297673e-04
-2.892192e-05
6.608100e-06
1.338259e-05
1.054359e-05
6.254911e-06
3.074548e-06
1.258271e-06
3.971814e-07
6.070451e-08
-3.654941e-08
-4.513516e-08
-3.086506e-08
-1.667720e-08
-7.617025e-09
-2.935448e-09
-8.841624e-10
-1.337489e-10
7.097088e-11
8.755256e-11
5.917180e-11
3.187748e-11
1.474345e-11
5.915300e-12
1.983665e-12
4.712524e-13
-4.073581e-15
-9.828098e-14
-8.177795e-14
-4.901487e-14
-2.481459e-14
-1.105029e-14
-4.328238e-15
-1.430950e-15
-3.385549e-16
1.288917e-18
6.894055e-17
5.793865e-17
3.511470e-17
1.805609e-17
8.223425e-18
3.333939e-18
1.171391e-18
3.226355e-19
3.811465e-20
-3.249371e-20
-3.520414e-20
-2.332818e-20
-1.271691e-20
-6.103471e-21
-2.624770e-21
-1.001560e-21
-3.227972e-22
-7.274141e-23
3.342330e-24
2.148928e-23
1.000002e+00
1.000087e+00
1.000689e+00
1.002154e+00
1.002931e+00
9.977727e-01
9.780409e-01
9.345496e-01
8.614409e-01
7.590617e-01
6.345496e-01
5.000000e-01
3.690871e-01
2.535224e-01
1.606174e-01
9.257346e-02
4.733144e-02
2.028267e-02
6.049231e-03
-2.110577e-04
-2.154930e-03
-2.156626e-03
-1.536799e-03
-9.008456e-04
-4.463980e-04
-1.816113e-04
-5.220922e-05
-9.645042e-07
1.274034e-05
1.205385e-05
7.861037e-06
4.174620e-06
1.857547e-06
6.653609e-07
1.541075e-07
-1.841614e-08
-5.153236e-08
-4.087215e-08
-2.401218e-08
-1.174045e-08
-4.861069e-09
-1.627513e-09
-3.475764e-10
5.066145e-11
1.168160e-10
8.862435e-11
5.074615e-11
2.454372e-11
1.025547e-11
3.606750e-12
9.393396e-13
5.444048e-14
-1.457967e-13
-1.340397e-13
-8.340625e-14
-4.314697e-14
-1.949612e-14
-7.717267e-15
-2.571332e-15
-6.118017e-16
2.393525e-18
1.254356e-16
1.055044e-16
6.389464e-17
3.276627e-17
1.484267e-17
5.958599e-18
2.053859e-18
5.388146e-19
4.261958e-20
-7.248168e-20
-7.006027e-20
-4.482305e-20
-2.391259e-20
-1.126125e-20
-4.740298e-21
-1.755165e-21
-5.349848e-22
-9.908911e-23
5.496367e-23
1.000001e+00
1.000018e+00
1.000246e+00
1.001124e+00
1.002576e+00
1.002419e+00
9.952065e-01
9.728714e-01
9.272953e-01
8.535950e-01
7.525250e-01
6.309129e-01
5.000000e-01
3.724369e-01
2.591374e-01
1.670844e-01
9.863087e-02
5.217462e-02
2.363159e-02
8.032044e-03
7.486921e-04
-1.835370e-03
-2.162836e-03
-1.661152e-03
-1.033266e-03
-5.445851e-04
-2.403767e-04
-8.116938e-05
-1.204371e-05
1.040130e-05
1.298356e-05
9.419158e-06
5.402721e-06
2.594367e-06
1.028115e-06
2.983922e-07
2.148226e-08
-5.134874e-08
-5.052453e-08
-3.270945e-08
-1.718339e-08
-7.633433e-09
-2.804518e-09
-7.427263e-10
-2.698459e-11
1.380747e-10
1.242918e-10
7.684008e-11
3.920302e-11
1.717983e-11
6.381013e-12
1.829816e-12
2.246217e-13
-1.889762e-13
-2.065345e-13
-1.359633e-13
-7.265267e-14
-3.361097e-14
-1.357609e-14
-4.622639e-15
-1.143088e-15
-2.600360e-17
2.104397e-16
1.833682e-16
1.124919e-16
5.804288e-17
2.634736e-17
1.055636e-17
3.607506e-18
9.198405e-19
4.944278e-20
-1.443057e-19
-1.324558e-19
-8.321495e-20
-4.384244e-20
-2.039233e-20
-8.450559e-21
-3.053397e-21
-8.765502e-22
5.570021e-23
1.000000e+00
1.000001e+00
1.000067e+00
1.000473e+00
1.001548e+00
1.002796e+00
1.001577e+00
9.923917e-01
9.677252e-01
9.203709e-01
8.462604e-01
7.464776e-01
6.275631e-01
5.000000e-01
3.755341e-01
2.643686e-01
1.731803e-01
1.044342e-01
5.691630e-02
2.700647e-02
1.011267e-02
1.823017e-03
-1.420704e-03
-2.107330e-03
-1.754912e-03
-1.156531e-03
-6.447872e-04
-3.048770e-04
-1.155665e-04
-2.683992e-05
6.057302e-06
1.309074e-05
1.079032e-05
6.700719e-06
3.456355e-06
1.491695e-06
5.034110e-07
9.071450e-08
-4.027985e-08
-5.793430e-08
-4.221031e-08
-2.394515e-08
-1.140161e-08
-4.551202e-09
-1.403834e-09
-2.035606e-10
1.352807e-10
1.621381e-10
1.104815e-10
5.997168e-11
2.770903e-11
1.090618e-11
3.429044e-12
6.178818e-13
-1.962451e-13
-2.970055e-13
-2.117651e-13
-1.181926e-13
-5.644988e-14
-2.346210e-14
-8.255380e-15
-2.169913e-15
-1.429717e-16
3.242154e-16
3.042927e-16
1.917195e-16
1.004002e-16
4.600871e-17
1.854502e-17
6.354400e-18
1.613931e-18
7.589767e-20
-2.640811e-19
-2.397109e-19
-1.499077e-19
-7.862784e-20
-3.634906e-20
-1.491714e-20
-5.255631e-21
-5.298726e-22
9.999999e-01
9.999980e-01
1.000009e+00
1.000158e+00
1.000742e+00
1.001918e+00
1.002813e+00
1.000455e+00
9.893921e-01
9.626304e-01
9.137545e-01
8.393826e-01
7.408626e-01
6.244659e-01
5.000000e-01
3.784081e-01
2.692579e-01
1.789397e-01
1.099990e-01
6.155252e-02
3.039188e-02
1.227399e-02
2.999797e-03
-9.160706e-04
-1.989762e-03
-1.815019e-03
-1.267223e-03
-7.444924e-04
-3.737840e-04
-1.549846e-04
-4.543407e-05
-5.381992e-07
1.214628e-05
1.182540e-05
7.995559e-06
4.419862e-06
2.056335e-06
7.768924e-07
1.967423e-07
-1.345279e-08
-6.063909e-08
-5.158438e-08
-3.184564e-08
-1.625477e-08
-6.998889e-09
-2.427808e-09
-5.331463e-10
8.433412e-11
1.941408e-10
1.504961e-10
8.777810e-11
4.295300e-11
1.794066e-11
6.141477e-12
1.411051e-12
-1.069318e-13
-3.932372e-13
-3.140170e-13
-1.853018e-13
-9.207969e-14
-3.965285e-14
-1.453269e-14
-4.106526e-15
-4.722585e-16
4.505132e-16
4.810630e-16
3.160039e-16
1.694354e-16
7.895113e-17
3.226196e-17
1.120464e-17
2.904155e-18
1.717961e-19
-4.488044e-19
-4.167706e-19
-2.626209e-19
-1.381693e-19
-6.387080e-20
-2.594388e-20
-5.084654e-21
9.999999e-01
9.999985e-01
9.999961e-01
1.000036e+00
1.000289e+00
1.001028e+00
1.002210e+00
1.002633e+00
9.990970e-01
9.862560e-01
9.576068e-01
9.074265e-01
8.329156e-01
7.356314e-01
6.215919e-01
5.000000e-01
3.810841e-01
2.738410e-01
1.843926e-01
1.153395e-01
6.608118e-02
3.377532e-02
1.450122e-02
4.267839e-03
-3.268999e-04
-1.810632e-03
-1.839213e-03
-1.362394e-03
-8.413156e-04
-4.456886e-04
-1.988632e-04
-6.778687e-05
-9.564398e-06
9.943344e-06
1.237225e-05
9.202698e-06
5.450659e-06
2.715695e-06
1.123650e-06
3.463514e-07
3.429429e-08
-5.568148e-08
-5.951519e-08
-4.048694e-08
-2.219071e-08
-1.025649e-08
-3.916739e-09
-1.080899e-09
-4.764105e-11
2.072409e-10
1.934605e-10
1.228343e-10
6.395695e-11
2.836716e-11
1.049871e-11
2.863144e-12
1.812512e-13
-4.661997e-13
-4.411049e-13
-2.792749e-13
-1.454863e-13
-6.528208e-14
-2.504992e-14
-7.633071e-15
-1.247069e-15
5.383549e-16
7.209666e-16
5.027434e-16
2.785113e-16
1.328798e-16
5.543604e-17
1.970007e-17
5.313583e-18
4.562313e-19
-7.077337e-19
-6.967890e-19
-4.477407e-19
-2.379978e-19
-1.100129e-19
-2.982434e-20
9.999999e-01
9.999991e-01
9.999956e-01
9.999988e-01
1.000084e+00
1.000451e+00
1.001309e+00
1.002407e+00
1.002269e+00
9.975403e-01
9.830211e-01
9.526686e-01
9.013691e-01
8.268197e-01
7.307421e-01
6.189159e-01
5.000000e-01
3.835838e-01
2.781487e-01
1.895655e-01
1.204692e-01
7.050159e-02
3.714676e-02
1.678160e-02
5.616872e-03
3.412770e-04
-1.571079e-03
-1.825921e-03
-1.439542e-03
-9.330360e-04
-5.191506e-04
-2.465308e-04
-9.375140e-05
-2.113155e-05
6.304372e-06
1.228212e-05
1.022980e-05
6.505187e-06
3.456714e-06
1.544990e-06
5.451178e-07
1.080976e-07
-3.973361e-08
-6.431630e-08
-4.922852e-08
-2.908724e-08
-1.439114e-08
-5.968387e-09
-1.919947e-09
-3.021899e-10
1.825506e-10
2.329457e-10
1.641643e-10
9.147918e-11
4.311838e-11
1.715145e-11
5.327544e-12
8.251591e-13
-4.616257e-13
-5.823824e-13
-4.035337e-13
-2.221717e-13
-1.043821e-13
-4.206858e-14
-1.380236e-14
-2.871497e-15
4.736004e-16
1.015372e-15
7.698236e-16
4.449874e-16
2.188424e-16
9.379159e-17
3.436352e-17
9.771046e-18
1.182631e-18
-1.023074e-18
-1.118821e-18
-7.424629e-19
-3.995484e-19
-1.390968e-19
1.000000e+00
9.999996e-01
9.999973e-01
9.999927e-01
1.000011e+00
1.000157e+00
1.000635e+00
1.001567e+00
1.002502e+00
1.001734e+00
9.958159e-01
9.797173e-01
9.478254e-01
8.955658e-01
8.210603e-01
7.261590e-01
6.164162e-01
5.000000e-01
3.859258e-01
2.822080e-01
1.944819e-01
1.254006e-01
7.481413e-02
4.049808e-02
1.910409e-02
7.037511e-03
1.082955e-03
-1.272720e-03
-1.774146e-03
-1.496583e-03
-1.017620e-03
-5.927370e-04
-2.972354e-04
-1.230874e-04
-3.528241e-05
1.085680e-06
1.141501e-05
1.098042e-05
7.532179e-06
4.259841e-06
2.038324e-06
7.969446e-07
2.127436e-07
-9.255438e-09
-6.397617e-08
-5.717835e-08
-3.667895e-08
-1.940876e-08
-8.664936e-09
-3.126660e-09
-7.284476e-10
9.496955e-11
2.588466e-10
2.090932e-10
1.257083e-10
6.305901e-11
2.683869e-11
9.255650e-12
2.047657e-12
-2.906608e-13
-7.127351e-13
-5.571519e-13
-3.273175e-13
-1.617574e-13
-6.861019e-14
-2.415347e-14
-5.997705e-15
3.842452e-17
1.322564e-15
1.130153e-15
6.894593e-16
3.518306e-16
1.557447e-16
5.916451e-17
1.785614e-17
2.845489e-18
-1.312746e-18
-1.719274e-18
-1.190655e-18
-5.407377e-19
1.000000e+00
9.999998e-01
9.999987e-01
9.999946e-01
9.999920e-01
1.000035e+00
1.000251e+00
1.000830e+00
1.001790e+00
1.002491e+00
1.001043e+00
9.939508e-01
9.763684e-01
9.430837e-01
8.900010e-01
8.156074e-01
7.218513e-01
6.140742e-01
5.000000e-01
3.881259e-01
2.860420e-01
1.991624e-01
1.301454e-01
7.901996e-02
4.382279e-02
2.145916e-02
8.521207e-03
1.892748e-03
-9.175219e-04
-1.683376e-03
-1.531820e-03
-1.093233e-03
-6.650515e-04
-3.501707e-04
-1.554760e-04
-5.199594e-05
-5.819865e-06
9.644139e-06
1.135750e-05
8.474497e-06
5.099550e-06
2.597005e-06
1.103692e-06
3.523583e-07