# vtk DataFile Version 3.0
QUICK_Gamma=0.0
ASCII
DATASET STRUCTURED_POINTS
DIMENSIONS 80 80 1
ORIGIN 0 0 0
SPACING 0.0125 0.0125 1
POINT_DATA 6400
SCALARS Temperature double 1
LOOKUP_TABLE default
5.000000e-001
6.188366e-002
-3.961222e-002
-2.603575e-002
-2.989148e-003
4.671616e-003
2.944565e-003
1.600565e-004
-7.648646e-004
-4.409185e-004
5.095084e-006
1.424324e-004
7.509957e-005
-6.115559e-006
-2.856463e-005
-1.375400e-005
2.163641e-006
6.006766e-006
2.632115e-006
-6.372048e-007
-1.304662e-006
-5.173805e-007
1.757038e-007
2.899574e-007
1.032284e-007
-4.699442e-008
-6.553048e-008
-2.070948e-008
1.236674e-008
1.499418e-008
4.140651e-009
-3.223378e-009
-3.462356e-009
-8.169073e-010
8.350520e-010
8.048527e-010
1.569069e-010
-2.154196e-010
-1.879745e-010
-2.870617e-011
5.539817e-011
4.403585e-011
4.786809e-012
-1.421070e-011
-1.033287e-011
-6.439000e-013
3.637475e-012
2.425397e-012
3.112191e-014
-9.292497e-013
-5.687993e-013
2.311462e-014
2.369461e-013
1.331118e-013
-1.320715e-014
-6.030557e-014
-3.104525e-014
5.103239e-015
1.531934e-014
7.205649e-015
-1.715652e-015
-3.883867e-015
-1.661603e-015
5.368721e-016
9.826172e-016
3.799040e-016
-1.608211e-016
-2.480513e-016
-8.589699e-017
4.677885e-017
6.246921e-017
1.913855e-017
-1.332187e-017
-1.569186e-017
-4.180856e-018
3.732062e-018
3.936529e-018
8.701253e-019
-9.546149e-019
-1.451151e-018
9.381163e-001
5.000000e-001
1.358050e-001
-2.328141e-002
-4.225380e-002
-1.681271e-002
1.921546e-003
5.544789e-003
2.382411e-003
-3.734030e-004
-9.332710e-004
-3.910129e-004
8.642762e-005
1.767047e-004
6.966662e-005
-2.092928e-005
-3.579001e-005
-1.302151e-005
5.158061e-006
7.568025e-006
2.502070e-006
-1.282911e-006
-1.647971e-006
-4.873174e-007
3.208992e-007
3.663923e-007
9.508129e-008
-8.057480e-008
-8.269527e-008
-1.836235e-008
2.028537e-008
1.887041e-008
3.456661e-009
-5.116399e-009
-4.340357e-009
-6.189921e-010
1.292036e-009
1.003872e-009
1.003397e-010
-3.265115e-010
-2.330193e-010
-1.274185e-011
8.253893e-011
5.419248e-011
3.329107e-013
-2.086428e-011
-1.260846e-011
5.862959e-013
5.272279e-012
2.930450e-012
-3.057403e-013
-1.331443e-012
-6.793983e-013
1.146704e-013
3.359417e-013
1.568765e-013
-3.792970e-014
-8.466719e-014
-3.601413e-014
1.174086e-014
2.130944e-014
8.202758e-015
-3.488667e-015
-5.354643e-015
-1.848725e-015
1.008291e-015
1.343025e-015
4.108509e-016
-2.856349e-016
-3.361413e-016
-8.958627e-017
7.969524e-017
8.393166e-017
1.902318e-017
-2.196960e-017
-2.090144e-017
-3.890125e-018
5.995410e-018
5.351317e-018
-2.644033e-019
1.039612e+000
8.641950e-001
5.000000e-001
1.695997e-001
-6.242363e-003
-4.667022e-002
-2.668077e-002
-2.957328e-003
5.866270e-003
4.214989e-003
6.057313e-004
-9.777465e-004
-7.505676e-004
-1.073820e-004
1.889254e-004
1.446251e-004
1.831404e-005
-3.963060e-005
-2.931869e-005
-2.961354e-006
8.739045e-006
6.149600e-006
4.243196e-007
-1.990673e-006
-1.320665e-006
-4.198028e-008
4.636132e-007
2.883452e-007
-2.970769e-009
-1.096736e-007
-6.367981e-008
3.660158e-009
2.623929e-008
1.417014e-008
-1.563973e-009
-6.329812e-009
-3.167053e-009
5.385450e-010
1.536256e-009
7.089947e-010
-1.687978e-010
-3.745009e-010
-1.585634e-010
5.022506e-011
9.158026e-011
3.533259e-011
-1.446374e-011
-2.244212e-011
-7.821173e-012
4.073393e-012
5.506417e-012
1.713713e-012
-1.128805e-012
-1.351766e-012
-3.699487e-013
3.090023e-013
3.318039e-013
7.816233e-014
-8.377457e-014
-8.138668e-014
-1.599666e-014
2.253458e-014
1.993766e-014
3.115194e-015
-6.021806e-015
-4.875340e-015
-5.568376e-016
1.600092e-015
1.189329e-015
8.318061e-017
-4.230561e-016
-2.892735e-016
-6.593837e-018
1.113537e-016
7.010191e-017
-1.958287e-018
-2.916459e-017
-1.713161e-017
2.302128e-018
5.539503e-018
1.026036e+000
1.023281e+000
8.304003e-001
5.000000e-001
1.906250e-001
8.135609e-003
-4.699545e-002
-3.376551e-002
-8.140458e-003
4.913728e-003
5.466505e-003
1.754596e-003
-6.981705e-004
-9.852208e-004
-3.507679e-004
1.248053e-004
1.932548e-004
7.071849e-005
-2.581924e-005
-4.014529e-005
-1.449157e-005
5.833705e-006
8.674251e-006
3.008497e-006
-1.388676e-006
-1.927068e-006
-6.296039e-007
3.409332e-007
4.368049e-007
1.321365e-007
-8.526295e-008
-1.004826e-007
-2.766210e-008
2.156269e-008
2.336914e-008
5.741426e-009
-5.490227e-009
-5.479026e-009
-1.172432e-009
1.403598e-009
1.292154e-009
2.329625e-010
-3.596725e-010
-3.059920e-010
-4.422576e-011
9.227547e-011
7.265331e-011
7.738721e-012
-2.368313e-011
-1.727443e-011
-1.138700e-012
6.077482e-012
4.108322e-012
9.155809e-014
-1.558691e-012
-9.762863e-013
2.439710e-014
3.994005e-013
2.315739e-013
-1.776462e-014
-1.022248e-013
-5.476907e-014
7.336044e-015
2.612796e-014
1.290062e-014
-2.555718e-015
-6.667609e-015
-3.022351e-015
8.194709e-016
1.698510e-015
7.031730e-016
-2.501408e-016
-4.318378e-016
-1.621524e-016
7.390898e-017
1.095203e-016
3.713501e-017
-2.173759e-017
-2.759139e-017
-4.590438e-018
1.002989e+000
1.042254e+000
1.006242e+000
8.093750e-001
5.000000e-001
2.055563e-001
2.030218e-002
-4.544514e-002
-3.886002e-002
-1.307375e-002
3.215710e-003
6.155175e-003
2.873318e-003
-2.021803e-004
-1.071791e-003
-5.884817e-004
5.569646e-006
2.055775e-004
1.222457e-004
1.531910e-006
-4.235941e-005
-2.599686e-005
-3.750951e-007
9.184570e-006
5.644309e-006
2.057837e-008
-2.065254e-006
-1.245728e-006
2.026578e-008
4.767727e-007
2.783774e-007
-1.211497e-008
-1.122040e-007
-6.277611e-008
4.851450e-009
2.678458e-008
1.424596e-008
-1.671874e-009
-6.461902e-009
-3.245526e-009
5.324136e-010
1.571320e-009
7.407039e-010
-1.615527e-010
-3.843380e-010
-1.690029e-010
4.746010e-011
9.441122e-011
3.847312e-011
-1.362489e-011
-2.326250e-011
-8.719630e-012
3.844742e-012
5.743489e-012
1.962668e-012
-1.070576e-012
-1.419780e-012
-4.374183e-013
2.949497e-013
3.511436e-013
9.614784e-014
-8.055436e-014
-8.683554e-014
-2.072909e-014
2.183973e-014
2.145929e-014
4.347058e-015
-5.884021e-015
-5.296755e-015
-8.745095e-016
1.576560e-015
1.305150e-015
1.644122e-016
-4.203611e-016
-3.208536e-016
-2.727273e-017
1.116246e-016
7.923593e-017
2.616887e-019
-2.268210e-017
9.953284e-001
1.016813e+000
1.046670e+000
9.918644e-001
7.944437e-001
5.000000e-001
2.170431e-001
3.080288e-002
-4.296209e-002
-4.253284e-002
-1.758541e-002
1.097546e-003
6.366840e-003
3.865781e-003
4.211032e-004
-1.019054e-003
-7.877540e-004
-1.460242e-004
1.813289e-004
1.633245e-004
3.681488e-005
-3.541833e-005
-3.487543e-005
-8.539669e-006
7.446478e-006
7.650131e-006
1.919203e-006
-1.655201e-006
-1.715382e-006
-4.245171e-007
3.833543e-007
3.913776e-007
9.283204e-008
-9.148066e-008
-9.051441e-008
-2.006310e-008
2.230533e-008
2.115411e-008
4.271879e-009
-5.523112e-009
-4.983781e-009
-8.907910e-010
1.382706e-009
1.181256e-009
1.801011e-010
-3.488602e-010
-2.812133e-010
-3.468328e-011
8.849788e-011
6.714766e-011
6.136407e-012
-2.253346e-011
-1.606226e-011
-9.078127e-013
5.751503e-012
3.844992e-012
7.107096e-014
-1.470194e-012
-9.201617e-013
2.126497e-014
3.760851e-013
2.199353e-013
-1.513775e-014
-9.621950e-014
-5.245273e-014
6.265222e-015
2.460952e-014
1.246932e-014
-2.194727e-015
-6.289831e-015
-2.951451e-015
7.081940e-016
1.605942e-015
6.946810e-016
-2.175797e-016
-4.094171e-016
-1.628004e-016
6.580432e-017
1.046871e-016
2.203948e-017
9.970554e-001
9.980785e-001
1.026681e+000
1.046995e+000
9.796978e-001
7.829569e-001
5.000000e-001
2.263400e-001
4.002282e-002
-4.000473e-002
-4.516819e-002
-2.163972e-002
-1.239586e-003
6.194099e-003
4.690800e-003
1.105117e-003
-8.480506e-004
-9.315806e-004
-3.102744e-004
1.252678e-004
1.884280e-004
7.456808e-005
-2.039049e-005
-3.950921e-005
-1.721089e-005
3.692579e-006
8.575883e-006
3.933539e-006
-7.449043e-007
-1.916720e-006
-8.988639e-007
1.656378e-007
4.386577e-007
2.059595e-007
-3.977663e-008
-1.023023e-007
-4.733656e-008
1.007867e-008
2.421687e-008
1.090559e-008
-2.641287e-009
-5.800149e-009
-2.515721e-009
7.056715e-010
1.401974e-009
5.803189e-010
-1.904087e-010
-3.412955e-010
-1.336684e-010
5.159118e-011
8.353962e-011
3.069327e-011
-1.398958e-011
-2.053237e-011
-7.013020e-012
3.789142e-012
5.061581e-012
1.590942e-012
-1.024061e-012
-1.250338e-012
-3.573467e-013
2.760068e-013
3.092541e-013
7.918133e-014
-7.416682e-014
-7.653293e-014
-1.721959e-014
1.986795e-014
1.893894e-014
3.646952e-015
-5.305740e-015
-4.683709e-015
-7.427217e-016
1.412560e-015
1.156890e-015
1.422451e-016
-3.749043e-016
-2.875613e-016
-1.379565e-017
7.727266e-017
9.998399e-001
9.944552e-001
1.002957e+000
1.033766e+000
1.045445e+000
9.691971e-001
7.736600e-001
5.000000e-001
2.341275e-001
4.823217e-002
-3.681373e-002
-4.702928e-002
-2.525336e-002
-3.670578e-003
5.719214e-003
5.336686e-003
1.802738e-003
-5.829705e-004
-1.013371e-003
-4.718305e-004
4.431352e-005
1.951866e-004
1.102221e-004
8.080555e-007
-3.916845e-005
-2.510660e-005
-1.565766e-006
8.210466e-006
5.716845e-006
5.335504e-007
-1.790255e-006
-1.311123e-006
-1.431560e-007
4.036502e-007
3.033910e-007
3.473380e-008
-9.355496e-008
-7.080853e-008
-7.921914e-009
2.217117e-008
1.665052e-008
1.715530e-009
-5.348069e-009
-3.939833e-009
-3.507776e-010
1.308146e-009
9.368815e-010
6.613486e-011
-3.234705e-010
-2.236301e-010
-1.076454e-011
8.066024e-011
5.352245e-011
1.171597e-012
-2.024283e-011
-1.283095e-011
1.039929e-013
5.104837e-012
3.078103e-012
-1.291967e-013
-1.291932e-012
-7.382636e-013
5.906553e-014
3.277924e-013
1.768687e-013
-2.169849e-014
-8.331017e-014
-4.228648e-014
7.218137e-015
2.119528e-014
1.007953e-014
-2.268168e-015
-5.394797e-015
-2.392749e-015
6.867878e-016
1.372755e-015
5.665694e-016
-2.061420e-016
-3.515071e-016
-7.881180e-017
1.000765e+000
9.976176e-001
9.941337e-001
1.008140e+000
1.038860e+000
1.042962e+000
9.599772e-001
7.658725e-001
5.000000e-001
2.408136e-001
5.562533e-002
-3.352271e-002
-4.830109e-002
-2.846183e-002
-6.117175e-003
5.010537e-003
5.807157e-003
2.481793e-003
-2.470206e-004
-1.033012e-003
-6.195674e-004
-5.412193e-005
1.834594e-004
1.403333e-004
2.594738e-005
-3.381747e-005
-3.123419e-005
-7.692373e-006
6.546118e-006
6.994796e-006
2.005834e-006
-1.333680e-006
-1.587283e-006
-4.966153e-007
2.854126e-007
3.654319e-007
1.199466e-007
-6.386835e-008
-8.528017e-008
-2.858706e-008
1.485504e-008
2.014109e-008
6.757785e-009
-3.567413e-009
-4.805606e-009
-1.588013e-009
8.788201e-010
1.156414e-009
3.711999e-010
-2.207878e-010
-2.802310e-010
-8.628801e-011
5.629065e-011
6.829233e-011
1.992864e-011
-1.450623e-011
-1.671742e-011
-4.565882e-012
3.766857e-012
4.106411e-012
1.035463e-012
-9.832757e-013
-1.011256e-012
-2.317165e-013
2.575499e-013
2.494714e-013
5.093857e-014
-6.760063e-014
-6.160751e-014
-1.092611e-014
1.776248e-014
1.522021e-014
2.261778e-015
-4.668681e-015
-3.759208e-015
-4.436140e-016
1.226659e-015
9.352903e-016
4.488593e-017
-2.511790e-016
1.000441e+000
1.000373e+000
9.957850e-001
9.950863e-001
1.013074e+000
1.042533e+000
1.040005e+000
9.517678e-001
7.591864e-001
5.000000e-001
2.466611e-001
6.234601e-002
-3.020873e-002
-4.911685e-002
-3.130554e-002
-8.530464e-003
4.123276e-003
6.113552e-003
3.121076e-003
1.392515e-004
-9.941753e-004
-7.459561e-004
-1.630326e-004
1.545538e-004
1.625579e-004
5.282230e-005
-2.390787e-005
-3.492209e-005
-1.403690e-005
3.726830e-006
7.583525e-006
3.488825e-006
-5.896014e-007
-1.678084e-006
-8.447608e-007
9.583711e-008
3.789961e-007
2.025021e-007
-1.641769e-008
-8.728101e-008
-4.839594e-008
3.087113e-009
2.045578e-008
1.156673e-008
-6.631392e-010
-4.867835e-009
-2.768023e-009
1.639704e-010
1.173538e-009
6.634677e-010
-4.511875e-011
-2.860148e-010
-1.592531e-010
1.317208e-011
7.033858e-011
3.826401e-011
-3.934575e-012
-1.742603e-011
-9.197781e-012
1.178329e-012
4.342967e-012
2.210466e-012
-3.505011e-013
-1.087500e-012
-5.307419e-013
1.031886e-013
2.733228e-013
1.272172e-013
-3.004387e-014
-6.888757e-014
-3.041612e-014
8.654467e-015
1.739784e-014
7.246715e-015
-2.468609e-015
-4.399010e-015
-1.723675e-015
7.094645e-016
1.119280e-015
2.381674e-016
9.999949e-001
1.000933e+000
9.993943e-001
9.945335e-001
9.967843e-001
1.017585e+000
1.045168e+000
1.036814e+000
9.443747e-001
7.533389e-001
5.000000e-001
2.518494e-001
6.850320e-002
-2.691723e-002
-4.957466e-002
-3.382397e-002
-1.088022e-002
3.101458e-003
6.270536e-003
3.707247e-003
5.584400e-004
-9.025615e-004
-8.463299e-004
-2.762476e-004
1.106315e-004
1.755086e-004
7.944604e-005
-1.019709e-005
-3.579996e-005
-2.000591e-005
-3.943408e-009
7.389688e-006
4.814096e-006
3.689319e-007
-1.560479e-006
-1.141321e-006
-1.442271e-007
3.383687e-007
2.699428e-007
4.305579e-008
-7.536676e-008
-6.403618e-008
-1.159220e-008
1.722010e-008
1.526841e-008
2.959378e-009
-4.026875e-009
-3.661334e-009
-7.313161e-010
9.611545e-010
8.828801e-010
1.766243e-010
-2.334901e-010
-2.139768e-010
-4.187419e-011
5.756831e-011
5.208970e-011
9.759159e-012
-1.436868e-011
-1.272774e-011
-2.234314e-012
3.622160e-012
3.119314e-012
5.011484e-013
-9.203779e-013
-7.662649e-013
-1.095488e-013
2.353271e-013
1.885510e-013
2.312381e-014
-6.045933e-014
-4.644531e-014
-4.634186e-015
1.558931e-014
1.144553e-014
8.533502e-016
-4.030255e-015
-2.842722e-015
-2.484986e-017
8.071454e-016
9.998576e-001
1.000391e+000
1.000978e+000
9.982454e-001
9.938448e-001
9.989025e-001
1.021640e+000
1.047029e+000
1.033523e+000
9.376540e-001
7.481506e-001
5.000000e-001
2.565060e-001
7.418145e-002
-2.367518e-002
-4.974825e-002
-3.605346e-002
-1.314829e-002
1.980007e-003
6.293754e-003
4.232527e-003
9.962066e-004
-7.647785e-004
-9.182044e-004
-3.885868e-004
5.428406e-005
1.785743e-004
1.041446e-004
6.395809e-006
-3.375412e-005
-2.510265e-005
-4.348885e-006
6.400153e-006
5.842285e-006
1.452176e-006
-1.235418e-006
-1.348494e-006
-4.089756e-007
2.447800e-007
3.122055e-007
1.073767e-007
-5.005358e-008
-7.285365e-008
-2.723350e-008
1.060266e-008
1.716543e-008
6.779170e-009
-2.331391e-009
-4.084820e-009
-1.669461e-009
5.322147e-010
9.813051e-010
4.084328e-010
-1.258865e-010
-2.377886e-010
-9.948905e-011
3.073737e-011
5.806477e-011
2.415613e-011
-7.709539e-012
-1.427361e-011
-5.848942e-012
1.975950e-012
3.528833e-012
1.412348e-012
-5.149032e-013
-8.766145e-013
-3.400238e-013
1.358206e-013
2.186260e-013
8.157742e-014
-3.613455e-014
-5.469918e-014
-1.949026e-014
9.668351e-015
1.371688e-014
4.648410e-015
-2.634431e-015
-3.450353e-015
-6.150632e-016
9.999249e-001
9.999136e-001
1.000751e+000
1.000698e+000
9.971267e-001
9.936332e-001
1.001240e+000
1.025253e+000
1.048301e+000
1.030209e+000
9.314968e-001
7.434940e-001
5.000000e-001
2.607251e-001
7.944761e-002
-2.049838e-002
-4.969392e-002
-3.802654e-002
-1.532439e-002
7.865714e-004
6.198581e-003
4.693019e-003
1.440976e-003
-5.876520e-004
-9.607070e-004
-4.958642e-004
-1.175797e-005
1.717410e-004
1.255876e-004
2.489684e-005
-2.887440e-005
-2.894419e-005
-8.993016e-006
4.666774e-006
6.470149e-006
2.565285e-006
-7.235979e-007
-1.439484e-006
-6.712047e-007
1.052481e-007
3.224625e-007
1.689912e-007
-1.351017e-008
-7.311830e-008
-4.178369e-008
1.235167e-009
1.681813e-008
1.024609e-008
4.188142e-011
-3.925869e-009
-2.504445e-009
-6.526003e-011
9.296020e-010
6.118000e-010
2.403418e-011
-2.230658e-010
-1.495636e-010
-6.822097e-012
5.417497e-011
3.661122e-011
1.694127e-012
-1.329841e-011
-8.975163e-012
-3.779699e-013
3.294867e-012
2.203274e-012
7.430780e-014
-8.228814e-013
-5.414844e-013
-1.165543e-014
2.069005e-013
1.331831e-013
7.698099e-016
-5.231490e-014
-3.276868e-014
4.315583e-016
1.329151e-014
8.123708e-015
-6.117844e-016
-2.578443e-015
1.000006e+000
9.998233e-001
1.000107e+000
1.000985e+000
1.000202e+000
9.961342e-001
9.938059e-001
1.003671e+000
1.028462e+000
1.049117e+000
1.026917e+000
9.258186e-001
7.392749e-001
5.000000e-001
2.645779e-001
8.435548e-002
-1.739572e-002
-4.945536e-002
-3.977191e-002
-1.740345e-002
-4.569679e-004
5.999488e-003
5.087511e-003
1.883553e-003
-3.778148e-004
-9.741193e-004
-5.948147e-004
-8.481364e-005
1.554332e-004
1.427805e-004
4.435156e-005
-2.140178e-005
-3.126340e-005
-1.363031e-005
2.289799e-006
6.632249e-006
3.617217e-006
-6.038410e-008
-1.399262e-006
-9.051476e-007
-6.893441e-008
2.974113e-007
2.208362e-007
3.088129e-008
-6.412370e-008
-5.334478e-008
-9.912039e-009
1.407706e-008
1.285612e-008
2.822749e-009
-3.152630e-009
-3.103327e-009
-7.576223e-010
7.207808e-010
7.517815e-010
1.965112e-010
-1.681918e-010
-1.829258e-010
-4.987098e-011
4.001937e-011
4.471772e-011
1.246629e-011
-9.695264e-012
-1.098128e-011
-3.080946e-012
2.387138e-012
2.708032e-012
7.543760e-013
-5.961374e-013
-6.703399e-013
-1.831848e-013
1.506849e-013
1.664822e-013
4.412663e-014
-3.847458e-014
-4.145499e-014
-1.058715e-014
1.003460e-014
1.028429e-014
1.240181e-015
1.000029e+000
9.999303e-001
9.998111e-001
1.000351e+000
1.001072e+000
9.995789e-001
9.953092e-001
9.942808e-001
1.006117e+000
1.031306e+000
1.049575e+000
1.023675e+000
9.205524e-001
7.354221e-001
5.000000e-001
2.681196e-001
8.894898e-002
-1.437172e-002
-4.906691e-002
-4.131473e-002
-1.938378e-002
-1.733289e-003
5.709756e-003
5.416618e-003
2.316749e-003
-1.414769e-004
-9.595238e-004
-6.829863e-004
-1.623680e-004
1.303802e-004
1.550360e-004
6.387361e-005
-1.168130e-005
-3.190147e-005
-1.798182e-005
-5.979409e-007
6.299033e-006
4.526984e-006
7.092989e-007
-1.224077e-006
-1.088513e-006
-2.637925e-007
2.371451e-007
2.569768e-007
7.900696e-008
-4.615390e-008
-6.036698e-008
-2.167208e-008
9.074818e-009
1.420853e-008
5.688517e-009
-1.812152e-009
-3.362829e-009
-1.457190e-009
3.696311e-010
8.017420e-010
3.680141e-010
-7.750183e-011
-1.926841e-010
-9.215079e-011
1.681128e-011
4.668426e-011
2.295321e-011
-3.792424e-012
-1.139923e-011
-5.698151e-012
8.921218e-013
2.803698e-012
1.411411e-012
-2.186524e-013
-6.941539e-013
-3.490313e-013
5.559790e-014
1.728802e-013
8.618916e-014
-1.455108e-014
-4.329970e-014
-2.140506e-014
4.856990e-015
8.105210e-015
1.000014e+000
1.000021e+000
9.998554e-001
9.998752e-001
1.000588e+000
1.001019e+000
9.988949e-001
9.946633e-001
9.949895e-001
1.008530e+000
1.033824e+000
1.049748e+000
1.020498e+000
9.156445e-001
7.318804e-001
5.000000e-001
2.713941e-001
9.326443e-002
-1.142811e-002
-4.855588e-002
-4.267701e-002
-2.126594e-002
-3.028678e-003
5.341385e-003
5.682169e-003
2.735029e-003
1.156898e-004
-9.185348e-004
-7.586226e-004
-2.421375e-004
9.750937e-005
1.619352e-004
8.267359e-005
-1.224676e-007
-3.079526e-005
-2.180677e-005
-3.844932e-006
5.472722e-006
5.227555e-006
1.535609e-006
-9.201294e-007
-1.203768e-006
-4.641576e-007
1.447377e-007
2.730102e-007
1.264825e-007
-2.035618e-008
-6.177120e-008
-3.282035e-008
2.188069e-009
1.404209e-008
8.304821e-009
-1.933119e-011
-3.219912e-009
-2.074027e-009
-9.041414e-011
7.464017e-010
5.145872e-010
3.958604e-011
-1.750972e-010
-1.273207e-010
-1.285765e-011
4.158160e-011
3.148317e-011
3.709381e-012
-9.994311e-012
-7.789912e-012
-1.003302e-012
2.429926e-012
1.929944e-012
2.602817e-013
-5.971399e-013
-4.788959e-013
-6.547692e-014
1.481762e-013
1.190110e-013
1.618836e-014
-3.752298e-014
-2.913049e-014
-1.011659e-015
9.999978e-001
1.000036e+000
9.999817e-001
9.998067e-001
9.999944e-001
1.000788e+000
1.000848e+000
9.981973e-001
9.941928e-001
9.958767e-001
1.010880e+000
1.036053e+000
1.049694e+000
1.017396e+000
9.110510e-001
7.286059e-001
5.000000e-001
2.744367e-001
9.733224e-002
-8.564849e-003
-4.794421e-002
-4.387800e-002
-2.305197e-002
-4.332283e-003
4.905109e-003
5.886778e-003
3.134217e-003
3.885952e-004
-8.530981e-004
-8.205486e-004
-3.221004e-004
5.786282e-005
1.632856e-004
1.000735e-004
1.283281e-005
-2.796227e-005
-2.490822e-005
-7.292493e-006
4.182062e-006
5.667835e-006
2.367711e-006
-5.017984e-007
-1.238777e-006
-6.549453e-007
2.566185e-008
2.662581e-007
1.690538e-007
1.144363e-008
-5.700558e-008
-4.219634e-008
-6.019297e-009
1.225129e-008
1.036173e-008
2.060099e-009
-2.656337e-009
-2.526438e-009
-6.122511e-010
5.831193e-010
6.148554e-010
1.699951e-010
-1.299361e-010
-1.498076e-010
-4.541808e-011
2.944534e-011
3.660453e-011
1.184797e-011
-6.794452e-012
-8.977845e-012
-3.042190e-012
1.597349e-012
2.211173e-012
7.725501e-013
-3.825839e-013
-5.469211e-013
-1.945779e-013
9.322543e-014
1.359430e-013
4.898897e-014
-2.577224e-014
-2.455679e-014
9.999940e-001
1.000013e+000
1.000040e+000
9.999293e-001
9.997944e-001
1.000146e+000
1.000932e+000
1.000583e+000
9.975182e-001
9.938864e-001
9.968985e-001
1.013148e+000
1.038027e+000
1.049455e+000
1.014372e+000
9.067356e-001
7.255633e-001
5.000000e-001
2.772760e-001
1.011781e-001
-5.780748e-003
-4.724967e-002
-4.493455e-002
-2.474478e-002
-5.635523e-003
4.410471e-003
6.033534e-003
3.511235e-003
6.727315e-004
-7.653438e-004
-8.680662e-004
-4.005053e-004
1.253413e-005
1.590803e-004
1.155114e-004
2.673500e-005
-2.348515e-005
-2.713481e-005
-1.078384e-005
2.476708e-006
5.813173e-006
3.156895e-006
1.031773e-008
-1.186923e-006
-8.221736e-007
-1.128667e-007
2.357883e-007
2.029157e-007
4.695226e-008
-4.604627e-008
-4.880026e-008
-1.486193e-008
8.885043e-009
1.160236e-008
4.229493e-009
-1.697905e-009
-2.749261e-009
-1.140996e-009
3.215849e-010
6.523920e-010
2.986980e-010
-6.037853e-011
-1.554756e-010
-7.680997e-011
1.124308e-011
3.727330e-011
1.953666e-011
-2.080766e-012
-8.997099e-012
-4.935613e-012
3.850234e-013
2.187455e-012
1.241692e-012
-7.219860e-014
-5.356762e-013
-3.115593e-013
1.371651e-014
1.335008e-013
7.550441e-014
-7.451634e-015
9.999974e-001
9.999948e-001
1.000029e+000
1.000026e+000
9.998778e-001
9.998187e-001
1.000310e+000
1.001013e+000
1.000247e+000
9.968789e-001
9.937295e-001
9.980200e-001
1.015324e+000
1.039772e+000
1.049067e+000
1.011428e+000
9.026678e-001
7.227240e-001
5.000000e-001
2.799360e-001
1.048239e-001
-3.073908e-003
-4.648680e-002
-4.586143e-002
-2.634786e-002
-6.931632e-003
3.865913e-003
6.125789e-003
3.863896e-003
9.641480e-004
-6.574793e-004
-9.008619e-004
-4.758636e-004
-3.737824e-005
1.494600e-004
1.285385e-004
4.114546e-005
-1.749695e-005
-2.837957e-005
-1.417087e-005
4.217283e-007
5.644786e-006
3.858889e-006
5.913454e-007
-1.046839e-006
-9.537107e-007
-2.625459e-007
1.823034e-007
2.249428e-007
8.362203e-008
-2.935533e-008
-5.186164e-008
-2.359969e-008
4.131740e-009
1.184263e-008
6.281552e-009
-4.094774e-010
-2.699484e-009
-1.619999e-009
-1.776412e-011
6.172916e-010
4.104655e-010
2.747586e-011
-1.420619e-010
-1.029834e-010
-1.126940e-011
3.297372e-011
2.570586e-011
3.654053e-012
-7.729608e-012
-6.402256e-012
-1.071346e-012
1.831472e-012
1.593879e-012
2.971438e-013
-4.385873e-013
-3.975426e-013
-7.983242e-014
1.129474e-013
6.941763e-014
1.000001e+000
9.999924e-001
1.000003e+000
1.000040e+000
9.999985e-001
9.998367e-001
9.998747e-001
1.000472e+000
1.001033e+000
9.998607e-001
9.962928e-001
9.937062e-001
9.992134e-001
1.017403e+000
1.041315e+000
1.048556e+000
1.008565e+000
8.988219e-001
7.200640e-001
5.000000e-001
2.824364e-001
1.082884e-001
-4.419948e-004
-4.566757e-002
-4.667164e-002
-2.786501e-002
-8.215294e-003
3.278883e-003
6.167003e-003
4.190725e-003
1.259413e-003
-5.317137e-004
-9.189281e-004
-5.469350e-004
-9.080435e-005
1.346795e-004
1.388132e-004
5.564967e-005
-1.016769e-005
-2.857695e-005
-1.731892e-005
-1.907452e-006
5.158469e-006
4.435455e-006
1.213939e-006
-8.218806e-007
-1.039769e-006
-4.145977e-007
1.079396e-007
2.328341e-007
1.188486e-007
-7.808398e-009
-5.087987e-008
-3.149938e-008
-1.705250e-009
1.098229e-008
8.016991e-009
1.112972e-009
-2.359128e-009
-1.996350e-009
-4.062245e-010
5.069142e-010
4.914622e-010
1.253574e-010
-1.093679e-010
-1.203539e-010
-3.577040e-011
2.376686e-011
2.943143e-011
9.770096e-012
-5.216580e-012
-7.204296e-012
-2.597736e-012
1.159491e-012
1.767809e-012
6.787128e-013
-2.608097e-013
-4.395140e-013
-1.643062e-013
5.819038e-014
1.000001e+000
9.999975e-001
9.999913e-001
1.000014e+000
1.000042e+000
9.999632e-001
9.998116e-001
9.999557e-001
1.000620e+000
1.000994e+000
9.994416e-001
9.957675e-001
9.938014e-001
1.000457e+000
1.019384e+000
1.042677e+000
1.047944e+000
1.005781e+000
8.951761e-001
7.175636e-001
5.000000e-001
2.847942e-001
1.115881e-001
2.117568e-003
-4.480188e-002
-4.737662e-002
-2.930015e-002
-9.482358e-003
2.655942e-003
6.160642e-003
4.490815e-003
1.555568e-003
-3.902049e-004
-9.224959e-004
-6.127068e-004
-1.467258e-004
1.150786e-004
1.460914e-004
6.986610e-005
-1.692606e-006
-2.769872e-005
-2.010986e-005
-4.429505e-006
4.362842e-006
4.855342e-006
1.849867e-006
-5.194354e-007
-1.073175e-006
-5.603025e-007
1.600827e-008
2.251819e-007
1.501422e-007
1.739570e-008
-4.563961e-008
-3.788743e-008
-8.237770e-009
9.007776e-009
9.260271e-009
2.752018e-009
-1.735612e-009
-2.225459e-009
-8.098187e-010
3.258618e-010
5.305521e-010
2.237273e-010
-5.921922e-011
-1.261693e-010
-5.963754e-011
1.027166e-011
3.003690e-011
1.555693e-011
-1.651349e-012
-7.175647e-012
-4.003626e-012
2.289556e-013
1.722257e-012
1.023356e-012
-2.223531e-014
-4.297983e-013
-1.728237e-013
1.000001e+000
1.000001e+000
9.999939e-001
9.999942e-001
1.000026e+000
1.000035e+000
9.999254e-001
9.998048e-001
1.000054e+000
1.000746e+000
1.000903e+000
9.990038e-001
9.953070e-001
9.940005e-001
1.001733e+000
1.021266e+000
1.043878e+000
1.047250e+000
1.003074e+000
8.917116e-001
7.152058e-001
5.000000e-001
2.870236e-001
1.147371e-001
4.607477e-003
-4.389799e-002
-4.798650e-002
-3.065723e-002
-1.072960e-002
2.002860e-003
6.110110e-003
4.763711e-003
1.850082e-003
-2.350244e-004
-9.119796e-004
-6.723716e-004
-2.041908e-004
9.105789e-005
1.502161e-004
8.345178e-005
7.717796e-006
-2.574925e-005
-2.244380e-005
-7.060971e-006
3.277387e-006
5.094734e-006
2.471343e-006
-1.501476e-007
-1.049456e-006
-6.914402e-007
-8.928727e-008
2.014757e-007
1.752663e-007
4.483341e-008
-3.620482e-008
-4.219155e-008
-1.502534e-008
5.988271e-009
9.871650e-009
4.379072e-009
-8.599862e-010
-2.274446e-009
-1.192447e-009
8.530689e-011
5.202350e-010
3.127182e-010
4.766653e-012
-1.187645e-010
-8.022273e-011
-6.410917e-012
2.716178e-011
2.031263e-011
2.644254e-012
-6.240244e-012
-5.104240e-012
-8.692384e-013
1.441763e-012
1.289091e-012
2.183892e-013
-2.786833e-013
9.999998e-001
1.000002e+000
9.999996e-001
9.999913e-001
1.000000e+000
1.000035e+000
1.000020e+000
9.998898e-001
9.998165e-001
1.000163e+000
1.000846e+000
1.000765e+000
9.985590e-001
9.949125e-001
9.942902e-001
1.003029e+000
1.023052e+000
1.044935e+000
1.046487e+000
1.000442e+000
8.884119e-001
7.129764e-001
5.000000e-001
2.891370e-001
1.177478e-001
7.030464e-003
-4.296282e-002
-4.851024e-002
-3.194015e-002
-1.195457e-002
1.324706e-003
6.018696e-003
5.009315e-003
2.140804e-003
-6.813448e-005
-8.879304e-004
-7.253044e-004
-2.623233e-004
6.305825e-005
1.511064e-004
9.610506e-005
1.784604e-005
-2.276061e-005
-2.423975e-005
-9.719356e-006
1.930399e-006
5.137286e-006
3.052096e-006
2.728745e-007
-9.667722e-007
-8.006349e-007
-2.031400e-007
1.620565e-007
1.923414e-007
7.295480e-008
-2.289618e-008
-4.397045e-008
-2.160715e-008
2.066457e-009
9.755290e-009
5.864374e-009
2.164650e-010
-2.124268e-009
-1.518907e-009
-1.981701e-010
4.571826e-010
3.830238e-010
7.755789e-011
-9.769286e-011
-9.510874e-011
-2.481573e-011
2.079322e-011
2.341669e-011
7.255486e-012
-4.419309e-012
-5.740736e-012
-2.024660e-012
9.519104e-013
1.421102e-012
3.275847e-013
9.999997e-001
1.000000e+000
1.000002e+000
9.999970e-001
9.999908e-001
1.000009e+000
1.000040e+000
9.999992e-001
9.998597e-001
9.998454e-001
1.000276e+000
1.000918e+000
1.000588e+000
9.981164e-001
9.945834e-001
9.946586e-001
1.004332e+000
1.024745e+000
1.045861e+000
1.045668e+000
9.978824e-001
8.852629e-001
7.108630e-001
5.000000e-001
2.911450e-001
1.206313e-001
9.389237e-003
-4.200217e-002
-4.895581e-002
-3.315271e-002
-1.315541e-002
6.259355e-004
5.889548e-003
5.227804e-003
2.425920e-003
1.086251e-004
-8.509990e-004
-7.710405e-004
-3.203269e-004
3.154414e-005
1.487471e-004
1.075666e-004
2.847434e-005
-1.878780e-005
-2.543544e-005
-1.232558e-005
3.569938e-007
4.973848e-006
3.568189e-006
7.348247e-007
-8.257477e-007
-8.816045e-007
-3.204134e-007
1.080320e-007
1.999156e-007
1.001758e-007
-6.256343e-009
-4.293193e-008
-2.753157e-008
-2.554465e-009
8.863497e-009
7.086013e-009
1.426740e-009
-1.770598e-009
-1.757563e-009
-5.040682e-010
3.423893e-010
4.266672e-010
1.531780e-010
-6.374054e-011
-1.023260e-010
-4.325699e-011
1.126235e-011
2.439019e-011
1.171705e-011
-1.826393e-012
-5.801544e-012
-3.120260e-012
3.790626e-013
1.058689e-012
9.999999e-001
9.999997e-001
1.000001e+000
1.000001e+000
9.999944e-001
9.999926e-001
1.000017e+000
1.000039e+000
9.999741e-001
9.998374e-001
9.998894e-001
1.000389e+000