# vtk DataFile Version 3.0
QUICK_DC
ASCII
DATASET STRUCTURED_POINTS
DIMENSIONS 81 81 1
ORIGIN 0 0 0
SPACING 0.0125 0.0125 1
POINT_DATA 6561
SCALARS Temperature double 1
LOOKUP_TABLE default
5.000000e-001
9.771535e-002
-6.809840e-003
-1.548661e-002
-6.857029e-003
-1.099314e-003
6.346974e-004
5.869500e-004
2.236329e-004
1.261258e-005
-4.134147e-005
-2.919810e-005
-9.290096e-006
8.126249e-007
2.755434e-006
1.629906e-006
4.119554e-007
-1.275880e-007
-1.892922e-007
-9.617958e-008
-1.733952e-008
1.279631e-008
1.325519e-008
5.805157e-009
5.500621e-010
-1.141284e-009
-9.370106e-010
-3.499354e-010
4.892071e-012
9.669198e-011
6.635592e-011
2.057028e-011
-3.415853e-012
-7.953887e-012
-4.676604e-012
-1.139690e-012
4.671516e-013
6.408430e-013
3.258970e-013
5.547396e-014
-5.002947e-014
-5.075153e-014
-2.228898e-014
-1.859252e-015
4.830717e-015
3.954762e-015
1.481194e-015
-4.011729e-017
-4.399193e-016
-3.030711e-016
-9.415718e-017
1.712518e-017
3.852550e-017
2.280113e-017
5.562632e-018
-2.394663e-018
-3.275746e-018
-1.678780e-018
-2.856310e-019
2.664900e-019
2.717752e-019
1.203559e-019
1.000690e-020
-2.672234e-020
-2.205281e-020
-8.333513e-021
2.272953e-022
2.519149e-021
1.751178e-021
5.494883e-022
-9.965314e-023
-2.275873e-022
-1.359684e-022
-3.357765e-023
1.435072e-023
1.990011e-023
1.029813e-023
1.782163e-024
-1.626692e-024
-1.764220e-024
-5.421082e-025
9.022847e-001
5.000000e-001
1.927576e-001
4.189575e-002
-6.543836e-003
-1.149477e-002
-5.862822e-003
-1.373602e-003
3.486565e-004
5.175857e-004
2.566910e-004
4.971943e-005
-2.684207e-005
-2.950835e-005
-1.323428e-005
-1.703574e-006
2.106332e-006
1.850428e-006
7.305814e-007
3.083393e-008
-1.651431e-007
-1.215006e-007
-4.114925e-008
3.108604e-009
1.290565e-008
8.154925e-009
2.277715e-009
-5.695456e-010
-1.003809e-009
-5.512900e-010
-1.181330e-010
6.502473e-011
7.758530e-011
3.711778e-011
5.182614e-012
-6.415191e-012
-5.948181e-012
-2.462504e-012
-1.199337e-013
5.892516e-013
4.514059e-013
1.589200e-013
-1.122399e-014
-5.182021e-014
-3.382588e-014
-9.786251e-015
2.387242e-015
4.419551e-015
2.494922e-015
5.546877e-016
-2.979060e-016
-3.678973e-016
-1.803588e-016
-2.645848e-017
3.147462e-017
2.998612e-017
1.270035e-017
7.079271e-019
-3.057190e-018
-2.396005e-018
-8.628273e-019
5.381056e-020
2.817675e-019
1.876473e-019
5.562837e-020
-1.290519e-020
-2.501469e-020
-1.438257e-020
-3.294195e-021
1.695193e-021
2.156120e-021
1.075658e-021
1.651158e-022
-1.859693e-022
-1.812046e-022
-7.809942e-023
-4.944046e-024
1.863027e-023
1.485243e-023
5.785706e-024
-2.598222e-024
1.006810e+000
8.072424e-001
5.000000e-001
2.370098e-001
7.847835e-002
9.285039e-003
-9.256371e-003
-8.181940e-003
-3.552750e-003
-6.086370e-004
3.824208e-004
3.959520e-004
1.783686e-004
2.717750e-005
-2.434441e-005
-2.320821e-005
-9.883192e-006
-1.009203e-006
1.786595e-006
1.488243e-006
5.737858e-007
1.562508e-008
-1.374444e-007
-9.978254e-008
-3.371025e-008
2.636615e-009
1.073858e-008
6.833994e-009
1.945419e-009
-4.551566e-010
-8.415768e-010
-4.713720e-010
-1.061708e-010
5.227925e-011
6.576398e-011
3.240231e-011
5.082441e-012
-5.230547e-012
-5.106024e-012
-2.198699e-012
-1.637854e-013
4.877792e-013
3.928219e-013
1.456816e-013
-4.526479e-015
-4.354024e-014
-2.986769e-014
-9.281588e-015
1.655484e-015
3.767213e-015
2.237878e-015
5.537186e-016
-2.275689e-016
-3.180127e-016
-1.646273e-016
-2.918528e-017
2.517177e-017
2.628075e-017
1.183017e-017
1.124561e-018
-2.518146e-018
-2.129407e-018
-8.241419e-019
6.610072e-021
2.372850e-019
1.691944e-019
5.497152e-020
-8.180895e-021
-2.145509e-020
-1.317024e-020
-3.431507e-021
1.254620e-021
1.879496e-021
1.002093e-021
1.906737e-022
-1.468108e-022
-1.603597e-022
-7.420781e-023
-8.245876e-024
1.568156e-023
1.528907e-023
1.015487e+000
9.581042e-001
7.629902e-001
5.000000e-001
2.645801e-001
1.067671e-001
2.583897e-002
-3.697958e-003
-8.323182e-003
-5.140929e-003
-1.764565e-003
-6.154470e-005
3.684226e-004
2.718650e-004
1.011598e-004
4.418858e-006
-2.180800e-005
-1.632428e-005
-5.936078e-006
-2.251045e-008
1.497539e-006
1.055864e-006
3.544272e-007
-2.520450e-008
-1.103123e-007
-7.110355e-008
-2.106558e-008
3.952172e-009
8.392999e-009
4.884161e-009
1.212509e-009
-4.520179e-010
-6.473070e-010
-3.376101e-010
-6.466441e-011
4.565766e-011
5.009958e-011
2.323936e-011
2.875351e-012
-4.312848e-012
-3.867787e-012
-1.577428e-012
-6.253183e-014
3.903284e-013
2.965946e-013
1.043790e-013
-7.394319e-015
-3.425708e-014
-2.251177e-014
-6.622695e-015
1.515410e-015
2.934642e-015
1.685304e-015
3.912603e-016
-1.900738e-016
-2.462658e-016
-1.239340e-016
-2.012907e-017
2.030247e-017
2.028127e-017
8.904241e-018
7.095734e-019
-1.996709e-018
-1.640220e-018
-6.200875e-019
1.555765e-020
1.864206e-019
1.302188e-019
4.132043e-020
-7.007978e-021
-1.676871e-020
-1.013539e-020
-2.572976e-021
1.015072e-021
1.464773e-021
7.715066e-022
1.420454e-022
-1.165561e-022
-1.244671e-022
-6.032145e-023
1.305121e-023
1.006857e+000
1.006544e+000
9.215216e-001
7.354199e-001
5.000000e-001
2.840962e-001
1.294954e-001
4.162442e-002
3.502217e-003
-6.812824e-003
-5.940725e-003
-2.819957e-003
-6.678055e-004
1.866166e-004
2.954944e-004
1.667037e-004
4.655915e-005
-8.191323e-006
-1.751388e-005
-1.040037e-005
-2.940342e-006
5.754021e-007
1.168015e-006
6.814581e-007
1.800288e-007
-5.058155e-008
-8.342945e-008
-4.603217e-008
-1.063787e-008
4.688008e-009
6.188489e-009
3.157283e-009
5.880820e-010
-4.322138e-010
-4.679917e-010
-2.172930e-010
-2.813668e-011
3.909667e-011
3.567664e-011
1.485238e-011
8.588381e-013
-3.465025e-012
-2.721622e-012
-9.976077e-013
3.539098e-014
3.013029e-013
2.066630e-013
6.496866e-014
-1.067997e-014
-2.574673e-014
-1.555172e-014
-4.017217e-015
1.447176e-015
2.164537e-015
1.154833e-015
2.264026e-016
-1.603580e-016
-1.791410e-016
-8.421263e-017
-1.043453e-017
1.614911e-017
1.459599e-017
5.992415e-018
2.145354e-019
-1.535330e-018
-1.170189e-018
-4.122346e-019
3.270285e-020
1.402565e-019
9.220675e-020
2.699528e-020
-6.592922e-021
-1.242708e-020
-7.127089e-021
-1.633582e-021
8.410331e-022
1.073552e-021
5.385389e-022
8.607559e-023
-9.366313e-023
-1.086740e-022
1.001099e+000
1.011495e+000
9.907150e-001
8.932329e-001
7.159038e-001
5.000000e-001
2.989777e-001
1.483346e-001
5.627295e-002
1.146463e-002
-4.119582e-003
-5.968573e-003
-3.620050e-003
-1.313437e-003
-1.073788e-004
2.416072e-004
2.048049e-004
9.012760e-005
1.444165e-005
-1.227194e-005
-1.258091e-005
-5.964337e-006
-1.067433e-006
7.758713e-007
8.375923e-007
4.001904e-007
6.774140e-008
-5.699330e-008
-5.897060e-008
-2.723805e-008
-3.831326e-009
4.546497e-009
4.299555e-009
1.865911e-009
1.793652e-010
-3.768163e-010
-3.198184e-010
-1.274782e-010
-4.440187e-012
3.167258e-011
2.401923e-011
8.599793e-012
-4.126172e-013
-2.666722e-012
-1.807770e-012
-5.659191e-013
9.240092e-014
2.235017e-013
1.355622e-013
3.568550e-014
-1.197171e-014
-1.858354e-014
-1.007760e-014
-2.088256e-015
1.308671e-015
1.529815e-015
7.389399e-016
1.051942e-016
-1.313132e-016
-1.244992e-016
-5.313096e-017
-3.407828e-018
1.249449e-017
1.000255e-017
3.716768e-018
-1.319466e-019
-1.145197e-018
-7.921275e-019
-2.499566e-019
4.305332e-020
1.019744e-019
6.171055e-020
1.582498e-020
-6.031138e-021
-8.864819e-021
-4.716659e-021
-9.026212e-022
6.859752e-022
7.523524e-022
3.714279e-022
-7.310311e-023
9.993653e-001
1.005863e+000
1.009256e+000
9.741610e-001
8.705046e-001
7.010223e-001
5.000000e-001
3.108819e-001
1.643253e-001
6.975467e-002
1.971174e-002
-6.001112e-004
-5.313967e-003
-4.097656e-003
-1.909952e-003
-4.656129e-004
1.184107e-004
2.060478e-004
1.250291e-004
4.117532e-005
-1.272524e-006
-1.149134e-005
-8.136491e-006
-2.997984e-006
-7.737551e-008
7.278283e-007
5.514319e-007
2.097024e-007
6.499451e-009
-5.104447e-008
-3.881149e-008
-1.450402e-008
-9.752598e-011
3.836110e-009
2.806635e-009
9.946597e-010
-4.144623e-011
-3.006652e-010
-2.064018e-010
-6.726801e-011
7.819913e-012
2.411513e-011
1.530709e-011
4.441215e-012
-1.006208e-012
-1.955048e-012
-1.137015e-012
-2.816189e-013
1.114939e-013
1.589543e-013
8.410179e-014
1.664910e-014
-1.138623e-014
-1.289462e-014
-6.160597e-015
-8.573178e-016
1.103486e-015
1.039980e-015
4.442764e-016
3.008727e-017
-1.030260e-016
-8.316528e-017
-3.131273e-017
7.157610e-019
9.346245e-018
6.578489e-018
2.134549e-018
-3.095312e-019
-8.280766e-019
-5.134883e-019
-1.383570e-019
4.499048e-020
7.187988e-020
3.944089e-020
8.250415e-021
-5.204146e-021
-6.124303e-021
-2.969274e-021
-4.228371e-022
5.543037e-022
6.067537e-022
9.994130e-001
1.001374e+000
1.008182e+000
1.003698e+000
9.583756e-001
8.516654e-001
6.891181e-001
5.000000e-001
3.207259e-001
1.781497e-001
8.214686e-002
2.797833e-002
3.485553e-003
-4.083522e-003
-4.235440e-003
-2.399232e-003
-8.444906e-004
-5.817141e-005
1.685074e-004
1.442798e-004
6.695688e-005
1.367006e-005
-6.977458e-006
-8.770179e-006
-4.726704e-006
-1.220456e-006
3.368015e-007
5.707923e-007
3.318346e-007
9.262616e-008
-2.039250e-008
-3.973563e-008
-2.364879e-008
-6.620352e-009
1.538785e-009
2.915146e-009
1.711191e-009
4.562439e-010
-1.334349e-010
-2.218126e-010
-1.251095e-010
-3.032664e-011
1.227184e-011
1.727408e-011
9.189399e-012
1.918905e-012
-1.143907e-012
-1.363126e-012
-6.742580e-013
-1.119644e-013
1.059713e-013
1.082023e-013
4.914414e-014
5.549834e-015
-9.687006e-015
-8.593487e-015
-3.536895e-015
-1.644649e-016
8.719678e-016
6.800800e-016
2.495508e-016
-9.725191e-018
-7.727553e-017
-5.345051e-017
-1.709299e-017
2.642159e-018
6.744910e-018
4.159301e-018
1.119152e-018
-3.620977e-019
-5.800643e-019
-3.194533e-019
-6.807041e-020
4.103141e-020
4.916242e-020
2.412927e-020
3.599187e-021
-4.235769e-021
-4.095708e-021
-1.884174e-021
4.941948e-022
9.997764e-001
9.996513e-001
1.003553e+000
1.008323e+000
9.964978e-001
9.437271e-001
8.356747e-001
6.792741e-001
5.000000e-001
3.290665e-001
1.902767e-001
9.355543e-002
3.611592e-002
7.949904e-003
-2.379314e-003
-4.043003e-003
-2.746327e-003
-1.208277e-003
-2.696036e-004
9.533153e-005
1.440502e-004
8.747462e-005
3.024123e-005
4.638576e-007
-7.528486e-006
-5.826432e-006
-2.418086e-006
-2.810576e-007
4.292784e-007
3.951206e-007
1.798808e-007
2.805907e-008
-2.740582e-008
-2.782213e-008
-1.316960e-008
-2.198346e-009
1.947488e-009
2.030150e-009
9.626442e-010
1.534786e-010
-1.504049e-010
-1.523278e-010
-7.038811e-011
-9.700930e-012
1.227242e-011
1.165488e-011
5.136065e-012
5.322348e-013
-1.033342e-012
-9.026400e-013
-3.724207e-013
-2.101581e-014
8.832615e-014
7.033436e-014
2.669065e-014
-1.677536e-016
-7.585212e-015
-5.486902e-015
-1.877521e-015
1.691625e-016
6.503545e-016
4.267815e-016
1.283783e-016
-2.647713e-017
-5.546012e-017
-3.297728e-017
-8.402988e-018
3.180893e-018
4.692620e-018
2.522394e-018
5.119077e-019
-3.406160e-019
-3.933096e-019
-1.902538e-019
-2.720752e-020
3.413370e-020
3.261207e-020
1.407899e-020
1.036412e-021
-3.360350e-021
-2.998524e-021
9.999874e-001
9.994824e-001
1.000609e+000
1.005141e+000
1.006813e+000
9.885354e-001
9.302453e-001
8.218503e-001
6.709335e-001
5.000000e-001
3.362661e-001
2.010412e-001
1.040871e-001
4.404245e-002
1.265779e-002
-2.914804e-004
-3.543483e-003
-2.932828e-003
-1.529521e-003
-4.976329e-004
-7.297497e-006
1.231853e-004
9.953688e-005
4.609427e-005
9.914871e-006
-4.408192e-006
-5.998985e-006
-3.428187e-006
-1.023713e-006
1.335441e-007
3.735211e-007
2.457003e-007
8.450015e-008
-2.685877e-009
-2.476070e-008
-1.774107e-008
-6.505559e-009
-2.230479e-011
1.751917e-009
1.304129e-009
4.868298e-010
3.157255e-012
-1.310678e-010
-9.755477e-011
-3.586353e-011
4.562071e-013
1.022910e-011
7.397299e-012
2.607200e-012
-1.341445e-013
-8.218256e-013
-5.659142e-013
-1.866011e-013
2.074135e-014
6.722730e-014
4.348024e-014
1.307338e-014
-2.584766e-015
-5.552744e-015
-3.340923e-015
-8.879704e-016
2.880782e-016
4.602862e-016
2.557244e-016
5.751172e-017
-2.996548e-017
-3.812470e-017
-1.942426e-017
-3.439616e-018
2.972448e-018
3.145180e-018
1.458201e-018
1.755978e-019
-2.846462e-019
-2.577882e-019
-1.076778e-019
-5.547234e-021
2.651028e-020
2.090718e-020
8.245985e-021
-3.518194e-021
1.000041e+000
9.997433e-001
9.996176e-001
1.001765e+000
1.005941e+000
1.004120e+000
9.802883e-001
9.178531e-001
8.097233e-001
6.637339e-001
5.000000e-001
3.425727e-001
2.106902e-001
1.138397e-001
5.171468e-002
1.751152e-002
2.103300e-003
-2.765920e-003
-2.951675e-003
-1.788222e-003
-7.257604e-004
-1.316717e-004
8.257184e-005
1.011431e-004
5.914638e-005
2.024986e-005
3.247005e-007
-5.098986e-006
-4.043507e-006
-1.766554e-006
-2.799057e-007
2.577542e-007
2.713581e-007
1.368444e-007
3.054812e-008
-1.386160e-008
-1.869658e-008
-1.028651e-008
-2.631947e-009
8.307641e-010
1.338193e-009
7.707609e-010
2.075144e-010
-5.707968e-011
-9.939435e-011
-5.802354e-011
-1.560434e-011
4.463005e-012
7.614481e-012
4.392348e-012
1.133321e-012
-3.826318e-013
-5.971512e-013
-3.337195e-013
-7.952486e-014
3.450285e-014
4.759509e-014
2.537349e-014
5.345495e-015
-3.175262e-015
-3.831626e-015
-1.924085e-015
-3.372350e-016
2.931045e-016
3.099930e-016
1.449840e-016
1.904777e-017
-2.690027e-017
-2.510188e-017
-1.081163e-017
-8.347842e-019
2.444524e-018
2.027753e-018
7.940025e-019
7.448015e-021
-2.195664e-019
-1.629587e-019
-5.703351e-020
4.292561e-021
2.010785e-020
1.324923e-020
1.000029e+000
9.999503e-001
9.996040e-001
1.000062e+000
1.002820e+000
1.005969e+000
1.000600e+000
9.720217e-001
9.064446e-001
7.989588e-001
6.574273e-001
5.000000e-001
3.481631e-001
2.194109e-001
1.229000e-001
5.911247e-002
2.244022e-002
4.741011e-003
-1.740974e-003
-2.803346e-003
-1.970589e-003
-9.398597e-004
-2.695912e-004
2.452828e-005
9.138749e-005
6.773696e-005
3.030419e-005
6.216429e-006
-3.128376e-006
-4.116400e-006
-2.384647e-006
-7.542430e-007
5.519087e-008
2.450981e-007
1.732766e-007
6.640708e-008
3.779450e-009
-1.511729e-008
-1.248404e-008
-5.326815e-009
-6.160411e-010
9.906561e-010
9.128049e-010
4.131607e-010
5.883512e-011
-6.959381e-011
-6.816120e-011
-3.163565e-011
-4.738861e-012
5.223218e-012
5.194442e-012
2.408758e-012
3.448596e-013
-4.139431e-013
-4.025991e-013
-1.826752e-013
-2.283319e-014
3.412756e-014
3.159738e-014
1.378480e-014
1.325314e-015
-2.886380e-015
-2.500317e-015
-1.032492e-015
-5.805985e-017
2.476543e-016
1.986965e-016
7.648846e-017
2.668560e-019
-2.138361e-017
-1.580223e-017
-5.577726e-018
3.672188e-019
1.847789e-018
1.253804e-018
3.977434e-019
-6.320064e-020
-1.591763e-019
-9.884939e-020
-2.944710e-020
2.376326e-020
1.000009e+000
1.000027e+000
9.998216e-001
9.996316e-001
1.000668e+000
1.003620e+000
1.005314e+000
9.965144e-001
9.638841e-001
8.959129e-001
7.893098e-001
6.518369e-001
5.000000e-001
3.531679e-001
2.273483e-001
1.313437e-001
6.622957e-002
2.739238e-002
7.568730e-003
-4.986111e-004
-2.493153e-003
-2.067796e-003
-1.128312e-003
-4.130275e-004
-4.771232e-005
7.028670e-005
7.068803e-005
3.899465e-005
1.270527e-005
-2.138068e-007
-3.569174e-006
-2.769628e-006
-1.222738e-006
-2.128737e-007
1.634800e-007
1.842829e-007
9.818810e-008
2.566389e-008
-6.959941e-009
-1.230153e-008
-7.485791e-009
-2.337101e-009
2.728977e-010
8.465643e-010
5.647933e-010
1.933785e-010
-9.811009e-012
-6.065639e-011
-4.281253e-011
-1.532322e-011
3.776238e-013
4.527605e-012
3.275841e-012
1.185861e-012
-2.728187e-014
-3.504384e-013
-2.530548e-013
-9.030134e-014
3.612310e-015
2.792561e-014
1.969926e-014
6.778254e-015
-5.019826e-016
-2.273599e-015
-1.541298e-015
-5.008244e-016
6.335248e-017
1.878024e-016
1.208592e-016
3.628061e-017
-7.323581e-018
-1.564654e-017
-9.470593e-018
-2.559119e-018
7.929171e-019
1.308696e-018
7.395149e-019
1.736124e-019
-8.087216e-020
-1.136179e-019
-4.953511e-020
9.999992e-001
1.000030e+000
9.999728e-001
9.997281e-001
9.998134e-001
1.001313e+000
1.004098e+000
1.004084e+000
9.920501e-001
9.559576e-001
8.861603e-001
7.805891e-001
6.468321e-001
5.000000e-001
3.576858e-001
2.346168e-001
1.392362e-001
7.306806e-002
3.233056e-002
1.054292e-002
9.330700e-004
-2.029360e-003
-2.074866e-003
-1.281884e-003
-5.545189e-004
-1.304096e-004
3.858511e-005
6.730121e-005
4.539595e-005
1.919027e-005
3.423805e-006
-2.393695e-006
-2.840660e-006
-1.618263e-006
-5.153576e-007
3.124150e-008
1.639678e-007
1.195140e-007
4.838394e-008
4.966743e-009
-9.346826e-009
-8.545398e-009
-4.000075e-009
-7.207613e-010
5.466253e-010
6.139836e-010
3.160627e-010
7.052578e-011
-3.378941e-011
-4.499439e-011
-2.458706e-011
-6.056327e-012
2.261542e-012
3.378869e-012
1.905597e-012
4.875564e-013
-1.658329e-013
-2.598733e-013
-1.477894e-013
-3.767275e-014
1.323996e-014
2.040575e-014
1.147916e-014
2.816475e-015
-1.127942e-015
-1.628887e-015
-8.921666e-016
-2.037036e-016
1.001185e-016
1.315965e-016
6.925991e-017
1.415554e-017
-9.077640e-018
-1.071545e-017
-5.358366e-018
-9.300687e-019
8.294821e-019
8.760167e-019
4.120675e-019
6.253971e-020
-1.455429e-019
9.999972e-001
1.000013e+000
1.000024e+000
9.998988e-001
9.997045e-001
1.000107e+000
1.001910e+000
1.004235e+000
1.002379e+000
9.873422e-001
9.482853e-001
8.771000e-001
7.726517e-001
6.423142e-001
5.000000e-001
3.617932e-001
2.413082e-001
1.466343e-001
7.963494e-002
3.722759e-002
1.362787e-002
2.528368e-003
-1.421899e-003
-1.989744e-003
-1.393492e-003
-6.873808e-004
-2.196201e-004
-2.432168e-006
5.731717e-005
4.878223e-005
2.508526e-005
7.501293e-006
-6.438938e-007
-2.549971e-006
-1.880911e-006
-8.159678e-007
-1.398978e-007
1.106506e-007
1.252515e-007
6.818763e-008
1.916109e-008
-3.689985e-009
-8.099992e-009
-5.254513e-009
-1.831438e-009
3.402359e-011
5.294699e-010
3.957052e-010
1.561304e-010
9.729285e-012
-3.574410e-011
-2.981512e-011
-1.268465e-011
-1.325000e-012
2.521221e-012
2.269512e-012
1.007579e-012
1.256557e-013
-1.865580e-013
-1.750707e-013
-7.911567e-014
-1.028873e-014
1.444811e-014
1.368317e-014
6.168734e-015
7.636816e-016
-1.163171e-015
-1.081529e-015
-4.782341e-016
-5.144240e-017
9.647783e-017
8.622601e-017
3.684469e-017
3.016363e-018
-8.170679e-018
-6.914587e-018
-2.816306e-018
-1.298658e-019
6.968331e-019
5.804305e-019
1.255829e-019
9.999984e-001
1.000002e+000
1.000023e+000
9.999956e-001
9.998333e-001
9.997584e-001
1.000466e+000
1.002399e+000
1.004043e+000
1.000291e+000
9.824885e-001
9.408875e-001
8.686563e-001
7.653832e-001
6.382068e-001
5.000000e-001
3.655503e-001
2.474973e-001
1.535874e-001
8.594007e-002
4.206392e-002
1.679429e-002
4.264139e-003
-6.814965e-004
-1.812546e-003
-1.457908e-003
-8.057954e-004
-3.114155e-004
-5.110483e-005
4.085608e-005
4.864254e-005
2.985815e-005
1.170302e-005
1.575748e-006
-1.884018e-006
-1.963399e-006
-1.077535e-006
-3.330575e-007
2.683993e-008
1.121324e-007
8.151668e-008
3.366998e-008
4.156797e-009
-5.966078e-009
-5.791791e-009
-2.863840e-009
-6.272148e-010
3.034706e-010
4.066560e-010
2.288602e-010
6.318750e-011
-1.493491e-011
-2.889798e-011
-1.788558e-011
-5.588760e-012
7.235397e-013
2.102764e-012
1.390727e-012
4.655852e-013
-3.635431e-014
-1.574068e-013
-1.084064e-013
-3.753550e-014
2.138644e-015
1.212372e-014
8.494616e-015
2.963421e-015
-1.671564e-016
-9.581685e-016
-6.693249e-016
-2.302647e-016
1.667991e-017
7.736823e-017
5.297880e-017
1.763285e-017
-1.836106e-018
-6.351686e-018
-4.204317e-018
-1.332634e-018
1.906291e-019
7.837002e-019
9.999996e-001
9.999979e-001
1.000010e+000
1.000022e+000
9.999534e-001
9.997952e-001
9.998816e-001
1.000844e+000
1.002746e+000
1.003543e+000
9.978967e-001
9.775598e-001
9.337704e-001
8.607638e-001
7.586918e-001
6.344497e-001
5.000000e-001
3.690057e-001
2.532455e-001
1.601381e-001
9.199478e-002
4.682564e-002
2.001818e-002
6.119749e-003
1.809015e-004
-1.544969e-003
-1.471481e-003
-9.048217e-004
-4.020297e-004
-1.055361e-004
1.835103e-005
4.467818e-005
3.305691e-005
1.570638e-005
4.123395e-006
-8.614486e-007
-1.834303e-006
-1.265698e-006
-5.282788e-007
-8.126095e-008
7.906683e-008
8.545224e-008
4.636253e-008
1.331921e-008
-2.207644e-009
-5.393287e-009
-3.618011e-009
-1.340492e-009
-4.650999e-011
3.336643e-010
2.711016e-010
1.170584e-010
1.512907e-011
-2.080545e-011
-2.015084e-011
-9.645682e-012
-1.767902e-012
1.335392e-012
1.508971e-012
7.747302e-013
1.669713e-013
-8.981609e-014
-1.146573e-013
-6.154826e-014
-1.436642e-014
6.414073e-015
8.862054e-015
4.869439e-015
1.171753e-015
-4.887886e-016
-6.965525e-016
-3.847513e-016
-9.205117e-017
3.955690e-017
5.557024e-017
3.038345e-017
7.004245e-018
-3.359728e-018
-4.470983e-018
-2.520482e-018
1.148560e-019
1.000000e+000
9.999981e-001
1.000001e+000
1.000016e+000
1.000008e+000
9.999099e-001
9.997940e-001
1.000058e+000
1.001208e+000
1.002933e+000
1.002766e+000
9.952590e-001
9.726076e-001
9.269319e-001
8.533657e-001
7.525027e-001
6.309943e-001
5.000000e-001
3.721986e-001
2.586043e-001
1.663240e-001
9.781104e-002
5.150303e-002
2.327989e-002
8.076927e-003
1.154509e-003
-1.189828e-003
-1.431864e-003
-9.803596e-004
-4.879553e-004
-1.637043e-004
-9.518076e-006
3.678835e-005
3.432461e-005
1.920237e-005
6.833118e-006
4.710806e-007
-1.479401e-006
-1.351737e-006
-7.045876e-007
-2.045576e-007
2.717916e-008
7.803384e-008
5.519539e-008
2.267916e-008
2.874164e-009
-3.961812e-009
-3.919366e-009
-1.991373e-009
-4.800472e-010
1.747470e-010
2.689061e-010
1.606459e-010
5.004846e-011
-5.839591e-012
-1.839704e-011
-1.254179e-011
-4.520359e-012
2.457889e-014
1.278274e-012
9.699606e-013
3.832068e-013
2.092673e-014
-9.123281e-014
-7.515548e-014
-3.145902e-014
-2.767574e-015
6.731031e-015
5.864904e-015
2.537248e-015
2.647880e-016
-5.143923e-016
-4.618278e-016
-2.024451e-016
-2.193190e-017
4.064979e-017
3.669586e-017
1.602378e-017
1.669815e-018
-3.365269e-018
-3.524424e-018
1.000000e+000
9.999993e-001
9.999982e-001
1.000006e+000
1.000018e+000
9.999856e-001
9.998750e-001
9.998315e-001
1.000270e+000
1.001530e+000
1.002952e+000
1.001741e+000
9.924313e-001
9.676694e-001
9.203651e-001
8.464126e-001
7.467545e-001
6.278014e-001
5.000000e-001
3.751614e-001
2.636168e-001
1.721777e-001
1.034010e-001
5.608955e-002
2.656332e-002
1.011957e-002
2.228936e-003
-7.507069e-004
-1.337780e-003
-1.029087e-003
-5.659982e-004
-2.235504e-004
-4.188585e-005
2.504896e-005
3.340578e-005
2.191101e-005
9.527173e-006
2.044288e-006
-9.014965e-007
-1.314517e-006
-8.418511e-007
-3.320292e-007
-4.037883e-008
5.844178e-008
5.844079e-008
3.101051e-008
8.779752e-009
-1.534825e-009
-3.643152e-009
-2.463922e-009
-9.394305e-010
-5.813478e-011
2.144035e-010
1.838650e-010
8.401607e-011
1.435670e-011
-1.219262e-011
-1.343511e-011
-6.990027e-012
-1.648829e-012
6.794858e-013
9.820611e-013
5.634078e-013
1.568931e-013
-3.766005e-014
-7.266377e-014
-4.483015e-014
-1.374761e-014
2.129016e-015
5.476623e-015
3.554566e-015
1.152268e-015
-1.284477e-016
-4.215629e-016
-2.821272e-016
-9.396585e-017
8.781638e-018
3.314082e-017
2.241077e-017
8.028771e-018
-4.216593e-018
1.000000e+000
1.000000e+000
9.999985e-001
1.000000e+000
1.000010e+000
1.000012e+000
9.999588e-001
9.998557e-001
9.999047e-001
1.000498e+000
1.001788e+000
1.002803e+000
1.000499e+000
9.894571e-001
9.627724e-001
9.140599e-001
8.398619e-001
7.413957e-001
6.248386e-001
5.000000e-001
3.779211e-001
2.683196e-001
1.777282e-001
1.087765e-001
6.058102e-002
2.985530e-002
1.223354e-002
3.394328e-003
-2.316850e-004
-1.188808e-003
-1.048386e-003
-6.333054e-004
-2.830433e-004
-7.775579e-005
9.688059e-006
3.014646e-005
2.359225e-005
1.202671e-005
3.772163e-006
-1.191073e-007
-1.141580e-006
-9.223130e-007
-4.517340e-007
-1.187759e-007
2.705060e-008
5.485996e-008
3.711412e-008
1.486916e-008
1.719425e-009
-2.731024e-009
-2.656269e-009
-1.357376e-009
-3.404275e-010
1.072131e-010
1.788684e-010
1.107120e-010
3.701451e-011
-1.869041e-012
-1.175567e-011
-8.617417e-012
-3.407177e-012
-2.333087e-013
7.709235e-013
6.595045e-013
2.919610e-013
3.974809e-014
-5.127243e-014
-5.040123e-014
-2.415867e-014
-4.300937e-015
3.505537e-015
3.878374e-015
1.963971e-015
4.005256e-016
-2.491614e-016
-3.017475e-016
-1.582466e-016
-3.454150e-017
1.835453e-017
2.459765e-017
1.152083e-017
1.000000e+000
1.000000e+000
9.999994e-001
9.999985e-001
1.000003e+000
1.000013e+000
1.000001e+000
9.999330e-001
9.998559e-001
1.000007e+000
1.000726e+000
1.001971e+000
1.002493e+000
9.990669e-001
9.863721e-001
9.579361e-001
9.080052e-001
8.336760e-001
7.363832e-001
6.220789e-001
5.000000e-001
3.805003e-001
2.727441e-001
1.830009e-001
1.139491e-001
6.497505e-002
3.314503e-002
1.440641e-002
4.641445e-003
3.628615e-004
-9.852149e-004
-1.036260e-003
-6.873722e-004
-3.402275e-004
-1.160469e-004
-8.939658e-006
2.448964e-005
2.405280e-005
1.416068e-005
5.557852e-006
8.356119e-007
-8.295135e-007
-9.317592e-007
-5.517647e-007
-2.019490e-007
-1.462795e-008
4.381476e-008
3.993884e-008
2.043038e-008
5.519918e-009
-1.198893e-009
-2.493602e-009
-1.665587e-009
-6.379570e-010
-4.523450e-011
1.413016e-010
1.242539e-010
5.862501e-011
1.149258e-011
-7.318945e-012
-8.925131e-012
-4.920064e-012
-1.337754e-012
3.354344e-013
6.338846e-013
3.964569e-013
1.286354e-013
-1.192391e-014
-4.523509e-014
-3.140312e-014
-1.138749e-014
1.002137e-016
3.277764e-015
2.475396e-015
9.657116e-016
3.857437e-017
-2.428289e-016
-1.954258e-016
-7.992020e-017
-6.828301e-018
3.319922e-017
1.000000e+000
1.000000e+000
1.000000e+000
9.999989e-001
9.999994e-001
1.000006e+000
1.000011e+000
9.999863e-001
9.999125e-001
9.998768e-001
1.000132e+000
1.000940e+000
1.002068e+000
1.002029e+000
9.974716e-001
9.832057e-001
9.531744e-001
9.021890e-001
8.278223e-001
7.316804e-001
6.194997e-001
5.000000e-001
3.829183e-001
2.769172e-001
1.880185e-001
1.189299e-001
6.927060e-002
3.642373e-002
1.662735e-002
5.961692e-003
1.028413e-003
-7.278017e-004
-9.912562e-004
-7.260349e-004
-3.932573e-004
-1.556326e-004
-3.037765e-005
1.646770e-005
2.314974e-005
1.577281e-005
7.299174e-006
1.919412e-006
-3.837128e-007
-8.603051e-007
-6.210912e-007
-2.830965e-007
-6.408811e-008
2.531768e-008
3.867920e-008
2.474960e-008
9.501223e-009
8.636808e-010
-1.937436e-009
-1.803045e-009
-9.109767e-010
-2.283972e-010
7.105273e-011
1.200661e-010
7.542697e-011
2.618765e-011
-3.784548e-013
-7.602300e-012
-5.857371e-012
-2.459966e-012
-2.834112e-013
4.672358e-013
4.425594e-013
2.125230e-013
4.055788e-014
-2.824660e-014
-3.318075e-014
-1.763334e-014
-4.241509e-015
1.699958e-015
2.497314e-015
1.434373e-015
3.938092e-016
-1.035168e-016
-1.891161e-016
-1.211470e-016
-1.058882e-017
1.000000e+000
1.000000e+000
1.000000e+000
9.999996e-001
9.999988e-001
1.000001e+000
1.000008e+000
1.000007e+000
9.999698e-001
9.999005e-001
9.999174e-001
1.000270e+000
1.001128e+000
1.002075e+000
1.001422e+000
9.957359e-001
9.799818e-001
9.484970e-001
8.965990e-001
8.222718e-001
7.272559e-001
6.170817e-001
5.000000e-001
3.851915e-001
2.808624e-001
1.928009e-001
1.237292e-001
7.346763e-002
3.968423e-002
1.888684e-002
7.347121e-003
1.760419e-003
-4.177832e-004
-9.123941e-004
-7.474559e-004
-4.404179e-004
-1.953725e-004
-5.409069e-005
6.193045e-006
2.079147e-005
1.672685e-005
8.893561e-006
3.080703e-006
1.823079e-007
-7.028302e-007
-6.502545e-007
-3.551733e-007
-1.180341e-007
2.607955e-011
3.284487e-008
2.717685e-008
1.324811e-008
3.301414e-009
-9.906054e-010
-1.723155e-009
-1.118716e-009
-4.221587e-010
-2.754940e-011
9.556040e-011
8.392242e-011
4.010164e-011
8.386091e-012
-4.563885e-012
-5.942567e-012
-3.399788e-012
-1.006373e-012
1.633945e-013
4.094995e-013
2.735296e-013
9.804785e-014
-5.837499e-016
-2.797818e-014
-2.149106e-014
-8.742348e-015
-7.002470e-016
1.920858e-015
1.674764e-015
7.448835e-016
1.006778e-016
-1.347922e-016
-1.663914e-016
1.000000e+000
1.000000e+000
1.000000e+000
1.000000e+000
9.999993e-001
9.999992e-001
1.000003e+000
1.000009e+000
9.999995e-001
9.999539e-001
9.998989e-001
9.999755e-001
1.000413e+000
1.001282e+000
1.001990e+000
1.000681e+000
9.938803e-001
9.767201e-001
9.439104e-001
8.912235e-001
8.169991e-001
7.230828e-001
6.148085e-001
5.000000e-001
3.873341e-001
2.846001e-001
1.973662e-001
1.283569e-001
7.756686e-002
4.292072e-002
2.117659e-002
8.790423e-003
2.554376e-003
-5.668650e-005
-7.990932e-004
-7.501020e-004
-4.801389e-004
-2.341373e-004
-7.948577e-005
-6.152139e-006
1.693667e-005
1.691023e-005
1.024229e-005
4.262323e-006
8.479339e-007
-4.591008e-007
-6.318942e-007
-4.113537e-007
-1.726203e-007
-3.081046e-008
2.230052e-008
2.718207e-008
1.633251e-008
5.906931e-009
3.019971e-010
-1.399131e-009
-1.223892e-009
-6.029557e-010
-1.460661e-010
5.056235e-011
8.135294e-011
5.097683e-011
1.793942e-011
2.208821e-014
-4.998528e-012
-3.960372e-012
-1.725917e-012
-2.494626e-013
2.877109e-013
2.954093e-013
1.503010e-013