# vtk DataFile Version 3.0
MUSCL
ASCII
DATASET STRUCTURED_POINTS
DIMENSIONS 80 80 1
ORIGIN 0 0 0
SPACING 0.0125 0.0125 1
POINT_DATA 6400
SCALARS Temperature double 1
LOOKUP_TABLE default
0.000000e+00
-6.739995e-01
-1.939478e-01
-2.456649e-02
-3.495393e-04
4.692234e-05
3.250180e-06
-4.960870e-07
-3.144538e-07
-1.134697e-07
-4.690333e-08
-2.134184e-08
-9.750152e-09
-4.306266e-09
-1.922874e-09
-4.026335e-10
-6.313831e-13
2.338645e-12
1.942165e-12
7.756775e-13
2.530825e-13
7.262593e-14
2.110250e-14
8.222876e-15
4.008090e-15
1.942908e-15
8.822289e-16
3.830694e-16
1.641498e-16
7.135675e-17
3.160627e-17
1.331215e-17
4.958872e-18
1.600407e-18
4.468127e-19
1.033085e-19
1.692577e-20
2.333792e-21
8.828773e-22
1.245329e-21
1.056803e-21
1.785541e-22
-1.047156e-24
-6.198689e-24
-3.364756e-24
-1.634592e-24
-8.139315e-25
-4.002233e-25
-1.888660e-25
-8.450263e-26
-3.610450e-26
-1.459098e-26
-5.189756e-27
-3.677077e-28
4.452652e-29
9.804544e-30
3.704125e-30
1.235863e-30
4.202582e-31
1.463043e-31
5.424935e-32
2.168323e-32
1.074067e-32
4.194428e-33
9.907899e-36
-6.038326e-35
-2.361622e-35
-1.096383e-35
-5.296966e-36
-2.445734e-36
-1.057040e-36
-4.288497e-37
-1.652893e-37
-6.118856e-38
-2.326545e-38
-3.631199e-39
9.882523e-41
4.711452e-41
2.620587e-41
1.144599e-41
1.326001e+00
6.739995e-01
1.939478e-01
2.456649e-02
3.495393e-04
-4.692234e-05
-3.250180e-06
4.960870e-07
3.144538e-07
1.134697e-07
4.690333e-08
2.134184e-08
9.750152e-09
4.306266e-09
1.922874e-09
4.026335e-10
6.313831e-13
-2.338645e-12
-1.942165e-12
-7.756775e-13
-2.530825e-13
-7.262593e-14
-2.110250e-14
-8.222876e-15
-4.008090e-15
-1.942908e-15
-8.822289e-16
-3.830694e-16
-1.641498e-16
-7.135675e-17
-3.160627e-17
-1.331215e-17
-4.958872e-18
-1.600407e-18
-4.468127e-19
-1.033085e-19
-1.692577e-20
-2.333792e-21
-8.828773e-22
-1.245329e-21
-1.056803e-21
-1.785541e-22
1.047156e-24
6.198689e-24
3.364756e-24
1.634592e-24
8.139315e-25
4.002233e-25
1.888660e-25
8.450263e-26
3.610450e-26
1.459098e-26
5.189756e-27
3.677077e-28
-4.452652e-29
-9.804544e-30
-3.704125e-30
-1.235863e-30
-4.202582e-31
-1.463043e-31
-5.424935e-32
-2.168323e-32
-1.074067e-32
-4.194428e-33
-9.907899e-36
6.038326e-35
2.361622e-35
1.096383e-35
5.296966e-36
2.445734e-36
1.057040e-36
4.288497e-37
1.652893e-37
6.118856e-38
2.326545e-38
3.631199e-39
-9.882523e-41
-4.711452e-41
-2.620587e-41
-1.144599e-41
1.041912e+00
9.580882e-01
5.985627e-01
2.397430e-01
5.878043e-02
3.910692e-03
-2.680007e-05
-5.819734e-05
-2.538774e-05
-1.043859e-05
-4.590869e-06
-2.035672e-06
-8.786945e-07
-2.296079e-07
-3.381700e-09
3.830880e-09
1.295021e-09
4.425260e-10
6.893225e-11
3.197905e-12
4.909739e-13
9.256307e-16
-1.148775e-14
6.264196e-15
1.353955e-15
-2.528703e-16
-1.174179e-16
-1.219497e-16
-9.077013e-17
-5.135497e-17
-3.104184e-17
-1.288245e-17
-5.076993e-18
-1.501493e-18
-4.660309e-19
-1.096304e-19
-1.111810e-20
5.163981e-21
2.277522e-21
-4.944446e-22
-8.881793e-22
-7.087552e-22
-9.685232e-22
-7.438487e-22
-3.808652e-22
-1.947876e-22
-9.579371e-23
-4.567630e-23
-2.109097e-23
-9.474991e-24
-3.752478e-24
-1.085190e-24
-6.419490e-26
2.811283e-27
2.734551e-27
1.049261e-27
3.899544e-28
1.437915e-28
5.159316e-29
1.813991e-29
6.546611e-30
2.143080e-30
5.383168e-31
-7.042735e-33
-1.211817e-32
-5.125913e-33
-2.476677e-33
-1.163254e-33
-5.203322e-34
-2.310088e-34
-1.037022e-34
-4.646628e-35
-2.035209e-35
-7.487174e-36
-1.046402e-36
4.958401e-38
1.305177e-38
6.656394e-39
2.997882e-39
1.179455e-39
9.992279e-01
1.000772e+00
8.861310e-01
5.933159e-01
2.706997e-01
8.403976e-02
1.571097e-02
1.206105e-03
4.878466e-04
2.084439e-04
7.484356e-05
9.043723e-06
-7.259638e-07
-8.097089e-07
-4.886972e-07
-1.815005e-07
-1.290294e-08
8.118305e-10
6.374710e-10
1.366586e-10
-5.092517e-13
-1.583477e-12
-6.126390e-13
-3.954119e-13
-2.375776e-13
-1.252506e-13
-5.337800e-14
-1.448904e-14
-2.608031e-15
-8.211997e-16
-3.534143e-16
-1.505222e-16
-6.285561e-17
-2.568016e-17
-1.154169e-17
-4.917344e-18
-1.818254e-18
-7.322072e-19
-2.992385e-19
-1.190917e-19
-3.474730e-20
-1.237969e-21
-6.477453e-22
-6.921551e-22
-3.541057e-22
-1.657932e-22
-4.490865e-23
-3.419439e-23
-1.808099e-23
-9.453342e-24
-6.504095e-24
-3.599170e-24
-1.685573e-24
-6.266618e-25
-2.438698e-25
-9.621956e-26
-3.675823e-26
-1.347616e-26
-4.467498e-27
-1.078163e-27
-1.310424e-28
1.306758e-30
2.940217e-30
1.392116e-30
6.692757e-31
3.379894e-31
1.545771e-31
5.849194e-32
1.867896e-32
6.361878e-33
3.021772e-33
1.364173e-33
4.902210e-35
-3.050204e-35
-9.656292e-36
-3.989055e-36
-1.570952e-36
-6.002561e-37
-2.284384e-37
-8.248813e-38
9.999093e-01
1.000091e+00
9.863421e-01
8.524013e-01
5.809248e-01
2.961548e-01
9.859492e-02
2.184968e-02
6.525678e-04
1.563645e-04
1.365532e-04
9.022146e-05
4.172737e-05
7.690704e-06
-5.047748e-07
-3.731753e-07
-2.496534e-07
-7.386635e-08
-3.089591e-10
5.200361e-10
4.545957e-10
1.925212e-10
8.016918e-11
3.390093e-11
1.304995e-11
2.175225e-12
-3.028040e-14
-4.452251e-14
-1.219505e-14
-2.630300e-16
-3.081949e-16
-7.071998e-17
7.534171e-17
8.301926e-17
4.656929e-17
2.262313e-17
1.087616e-17
2.908221e-18
-3.166424e-19
-1.886600e-19
-1.082760e-19
-5.657088e-20
-2.833248e-20
-1.656240e-20
-9.569214e-21
-5.091079e-21
-2.612765e-21
-1.119915e-21
-3.376484e-22
-2.273097e-23
2.508965e-24
-1.918578e-25
-6.691370e-25
-5.906899e-25
-2.119145e-25
-5.713330e-26
-2.119384e-26
-1.325184e-26
-7.854165e-27
-4.162437e-27
-1.884041e-27
-7.317616e-28
-2.245560e-28
-7.809524e-29
-3.050129e-29
-1.206737e-29
-4.436287e-30
-1.458571e-30
-4.159845e-31
-1.126983e-31
-2.548874e-32
-4.956316e-34
1.425429e-33
1.144202e-33
5.151402e-34
2.165722e-34
8.605719e-35
3.320669e-35
1.277241e-35
5.851396e-36
9.999747e-01
1.000025e+00
1.000092e+00
9.657241e-01
8.296781e-01
5.644938e-01
3.365079e-01
1.267510e-01
3.481083e-02
2.633063e-03
-4.278780e-05
6.527527e-05
6.199440e-05
4.461148e-05
1.871535e-05
2.950776e-06
-2.619849e-07
-2.236977e-07
-1.316454e-07
-5.735764e-08
-2.461991e-08
-1.057673e-08
-3.658071e-09
-3.530892e-10
2.960751e-11
1.338827e-11
4.130144e-12
-5.660906e-15
-5.582095e-14
-3.550694e-14
-1.316847e-14
-5.310735e-15
-2.079517e-15
-7.241963e-16
-2.202671e-16
-4.758574e-17
1.004120e-17
9.750845e-18
6.044779e-18
2.692299e-18
1.039480e-18
3.128768e-19
4.922002e-20
-3.183401e-21
-7.858947e-21
-4.819980e-21
-1.922682e-21
-1.877244e-21
-1.337844e-21
-7.740017e-22
-3.480963e-22
-1.442702e-22
-5.794917e-23
-2.340743e-23
-9.881257e-24
-3.516385e-24
-5.668275e-25
8.250394e-27
-6.657216e-27
-3.309058e-27
-1.494082e-27
1.914194e-27
2.740811e-28
8.492157e-29
1.938777e-30
-8.773084e-30
2.488159e-30
3.091028e-30
9.065221e-31
1.128980e-31
7.747762e-33
-1.797685e-32
-3.640137e-32
-2.660015e-32
-1.265539e-32
-5.732604e-33
-2.404017e-33
-9.860015e-34
-2.688517e-34
-3.872703e-35
9.999976e-01
1.000002e+00
1.000037e+00
9.984359e-01
9.484931e-01
8.110887e-01
5.427200e-01
3.577229e-01
1.479529e-01
5.009106e-02
9.691666e-03
2.279391e-04
6.161151e-05
3.973305e-05
3.316940e-05
2.180983e-05
1.107331e-05
4.685201e-06
1.944253e-06
7.178985e-07
1.083736e-07
-8.617916e-09
-8.024710e-09
-4.714692e-09
-1.488745e-09
-4.180056e-11
2.488892e-11
1.132190e-11
4.582945e-12
2.007659e-12
8.680806e-13
3.756740e-13
1.573147e-13
6.249188e-14
1.491076e-14
7.176746e-17
-1.628637e-16
-7.127009e-17
-2.293495e-17
-8.764699e-18
-4.120765e-18
-2.284133e-18
-1.313356e-18
-7.175140e-19
-3.541811e-19
-1.515942e-19
-2.870098e-20
1.139184e-22
-1.071019e-21
-7.843567e-22
-2.143855e-22
-8.804026e-23
-3.649447e-23
-1.986034e-23
-8.813780e-24
-6.543839e-24
-4.248858e-24
-2.044895e-24
-8.203974e-25
-3.279945e-25
-1.197610e-25
-5.483229e-26
-2.068809e-26
-7.910400e-27
-3.054490e-27
-1.148113e-27
-4.179423e-28
-1.497199e-28
-5.234202e-29
-1.562692e-29
-2.519950e-30
-7.757890e-32
-1.237873e-32
-2.457808e-32
8.060153e-34
-2.804452e-33
-2.007040e-33
-1.232955e-33
-7.941873e-34
-3.603806e-34
1.000000e+00
1.000000e+00
1.000008e+00
9.999511e-01
9.918688e-01
9.348750e-01
7.949848e-01
5.168657e-01
3.729753e-01
1.555610e-01
5.838689e-02
1.607534e-02
2.084226e-03
1.181036e-04
2.284019e-05
2.160063e-05
1.100052e-05
4.746642e-06
1.967481e-06
1.232351e-06
8.640064e-07
3.476852e-07
4.857717e-08
-5.721501e-09
-4.529854e-09
-2.651936e-09
-1.160588e-09
-4.907222e-10
-2.080441e-10
-8.976290e-11
-3.477453e-11
-7.592721e-12
2.628981e-13
1.070693e-13
6.960550e-14
3.644167e-14
1.482426e-14
5.948221e-15
2.423757e-15
1.019388e-15
4.407729e-16
1.941896e-16
7.705392e-17
1.848950e-17
-3.472910e-20
-2.253716e-19
-1.818017e-19
-9.241620e-20
-4.250454e-20
-1.930859e-20
-8.226961e-21
-3.380374e-21
-1.367269e-21
-5.552459e-22
-1.166539e-22
-7.388439e-24
-1.362457e-24
-1.608079e-24
-7.192995e-25
-3.374738e-25
-2.071209e-25
-9.097337e-26
-2.243478e-26
-3.970390e-27
-1.232257e-27
-7.759740e-28
-3.864332e-28
-7.887284e-29
-7.450384e-29
-3.591200e-29
-1.538426e-29
-5.479511e-30
-2.102931e-30
-9.763475e-31
-5.067592e-31
-2.344832e-31
-4.181644e-32
1.719776e-33
-3.401585e-34
-3.177806e-34
9.999998e-01
1.000000e+00
9.999997e-01
1.000026e+00
1.000027e+00
9.851658e-01
9.218350e-01
7.795342e-01
5.212917e-01
3.784515e-01
1.650118e-01
6.665147e-02
2.044670e-02
4.205350e-03
3.795604e-04
8.162474e-05
4.737315e-05
2.662669e-05
9.677878e-06
1.965276e-06
8.340290e-07
6.817216e-07
4.143076e-07
1.999554e-07
8.411595e-08
3.510926e-08
1.466875e-08
6.311987e-09
1.812309e-09
-6.787169e-11
-5.678498e-11
-3.688366e-11
-1.934777e-11
-8.333463e-12
-3.552448e-12
-1.509447e-12
-6.444836e-13
-2.775050e-13
-1.200339e-13
-5.333207e-14
-1.429549e-14
-1.605358e-16
1.221577e-16
8.712661e-17
4.020431e-17
1.025638e-17
1.859914e-18
5.855066e-19
2.176452e-19
7.792790e-20
2.353323e-20
5.249568e-21
3.636490e-22
-4.688473e-22
-4.668843e-22
-2.417288e-22
-1.031549e-22
-4.184028e-23
-1.257683e-23
-8.613181e-25
-2.071614e-25
-2.625922e-27
-3.176569e-26
-1.122165e-25
-6.785081e-26
-2.764102e-26
-9.731448e-27
-2.329860e-27
-3.611718e-29
-3.299967e-29
-1.440308e-29
3.422516e-30
-1.019110e-30
-2.311929e-31
-2.900141e-31
-2.973808e-31
-2.783955e-31
-1.488271e-31
-7.220812e-32
-3.202983e-32
9.999998e-01
1.000000e+00
1.000000e+00
1.000013e+00
1.000013e+00
9.989066e-01
9.786643e-01
9.079826e-01
7.698410e-01
5.221855e-01
3.810894e-01
1.771439e-01
7.565159e-02
2.536568e-02
5.902996e-03
4.456983e-04
4.244921e-05
2.963465e-05
2.393012e-05
1.307844e-05
3.511655e-06
6.812045e-07
3.916717e-07
2.052552e-07
8.793665e-08
3.540572e-08
1.393322e-08
7.588103e-09
5.274065e-09
2.966276e-09
1.244939e-09
5.200764e-10
2.154277e-10
8.938875e-11
3.707329e-11
1.526300e-11
6.514963e-12
1.835803e-12
-1.275549e-14
-5.734550e-14
-4.878224e-14
-2.451706e-14
-4.416263e-15
1.212123e-17
6.404446e-17
3.258247e-17
6.277328e-18
-1.119839e-19
2.046821e-19
8.227179e-20
1.792445e-20
-1.053050e-21
-4.000173e-22
-4.201211e-22
-3.559456e-22
-6.438586e-23
-1.044556e-22
-7.160871e-23
-4.203592e-23
-2.215685e-23
-1.008484e-23
-4.608403e-24
-2.284700e-24
-6.514455e-25
-1.722600e-25
-5.404513e-26
-2.238669e-26
-1.074221e-26
-4.688500e-27
-1.724369e-27
-6.152027e-28
-2.380959e-28
-9.284315e-29
-4.176241e-29
-1.145290e-29
-2.383823e-31
-2.422096e-31
-1.413853e-31
-6.727511e-32
3.925108e-33
9.999999e-01
1.000000e+00
1.000000e+00
1.000002e+00
1.000015e+00
9.999998e-01
9.971805e-01
9.709451e-01
8.968984e-01
7.615605e-01
5.236710e-01
3.740842e-01
1.874685e-01
8.579716e-02
3.197311e-02
8.895490e-03
1.221953e-03
1.987102e-05
2.348771e-05
2.085314e-05
1.545109e-05
5.970077e-06
1.658441e-06
6.890932e-07
4.076689e-07
2.152143e-07
8.098346e-08
1.367017e-08
3.443741e-09
2.237791e-09
1.062818e-09
5.305665e-10
1.906488e-10
8.023922e-11
1.305022e-11
9.102217e-12
6.537608e-12
5.021892e-12
2.699380e-12
6.138543e-13
-4.318198e-14
-3.916818e-14
-2.893269e-14
-1.193727e-14
-1.542777e-15
-8.090411e-18
5.001858e-17
2.697445e-17
1.154686e-17
5.544571e-18
1.262826e-18
5.261784e-21
-8.020010e-21
-8.053365e-21
-3.596520e-21
-6.810515e-22
1.163800e-22
3.155145e-22
1.753388e-22
-1.391691e-23
-1.208448e-23
-7.826893e-24
-4.100797e-24
-6.412987e-25
2.210772e-26
3.505356e-26
5.790592e-28
-7.198986e-27
-4.689226e-27
-1.797654e-27
-3.982775e-28
-1.377162e-28
-6.924779e-29
-4.139127e-29
-3.106910e-29
-2.045712e-29
-1.049653e-29
-5.178825e-30
-2.597623e-30
-1.106963e-30
9.999999e-01
1.000000e+00
1.000000e+00
1.000000e+00
1.000008e+00
1.000010e+00
9.999750e-01
9.941324e-01
9.638116e-01
8.860894e-01
7.588460e-01
5.118877e-01
3.893218e-01
1.921084e-01
9.238400e-02
3.719728e-02
1.168344e-02
2.311774e-03
6.196540e-05
2.134550e-05
1.677758e-05
1.337754e-05
6.537500e-06
1.492111e-06
4.130977e-07
2.552933e-07
2.094294e-07
1.326072e-07
6.554942e-08
3.102379e-08
1.481710e-08
7.065035e-09
3.259310e-09
1.500312e-09
7.345389e-10
2.451456e-10
3.377859e-11
4.692869e-12
3.723494e-12
2.736751e-12
1.393855e-12
3.011043e-13
-2.623123e-14
-2.279891e-14
-1.518835e-14
-7.264794e-15
-3.204556e-15
-8.637030e-16
-3.015448e-18
1.576172e-17
5.007005e-18
2.589491e-18
1.183131e-18
5.225779e-19
6.213633e-20
-2.999265e-21
-1.253904e-21
8.945293e-23
3.228024e-22
2.727370e-22
1.222120e-22
2.489443e-23
-3.952484e-24
-9.712821e-25
-1.058819e-25
-9.758716e-26
-1.176648e-25
-8.373708e-26
-4.487319e-26
-2.214385e-26
-9.704479e-27
-4.378657e-27
-2.063890e-27
-5.226570e-28
-1.770035e-29
-1.675850e-29
-9.518764e-30
-3.121931e-30
-1.509764e-30
-8.771643e-31
1.000000e+00
1.000000e+00
1.000000e+00
1.000000e+00
1.000002e+00
1.000007e+00
1.000006e+00
9.997298e-01
9.914240e-01
9.547981e-01
8.817050e-01
7.453792e-01
5.159114e-01
3.938059e-01
1.986410e-01
9.891110e-02
4.199863e-02
1.456024e-02
3.641352e-03
3.621609e-04
1.539857e-05
1.581567e-05
1.327797e-05
9.421822e-06
3.493082e-06
5.251180e-07
1.785026e-07
1.010352e-07
5.962080e-08
2.695100e-08
1.450701e-08
6.207725e-09
2.409642e-09
1.413303e-09
7.063321e-10
5.876306e-10
3.276095e-10
8.735229e-11
5.144493e-12
2.624030e-12
1.903290e-12
1.319746e-12
6.912363e-13
2.953841e-13
9.580954e-14
3.178155e-15
-3.342935e-15
-2.912805e-15
-1.614908e-15
-6.831570e-16
-2.966411e-16
-8.296136e-17
-7.857968e-19
6.728753e-19
5.695600e-19
2.813044e-19
3.336804e-20
2.042851e-22
-4.403962e-22
-5.488312e-24
1.210282e-22
1.199457e-22
8.599294e-23
4.068713e-23
1.884436e-23
8.096072e-24
3.203574e-24
1.172716e-24
3.961060e-25
1.219087e-25
3.788370e-26
6.577770e-27
-1.204025e-27
-1.431181e-27
-1.138450e-27
-5.508405e-28
-2.800326e-28
-1.348319e-28
-6.328358e-29
-2.461609e-29
1.000000e+00
1.000000e+00
1.000000e+00
1.000000e+00
1.000000e+00
1.000003e+00
1.000006e+00
9.999063e-01
9.998441e-01
9.863142e-01
9.508251e-01
8.715418e-01
7.384602e-01
5.161593e-01
3.972045e-01
2.051974e-01
1.052183e-01
4.642199e-02
1.747713e-02
5.032678e-03
6.000390e-04
5.695954e-06
7.119484e-06
8.906603e-06
7.885466e-06
4.972782e-06
2.384403e-06
1.146967e-06
5.602931e-07
2.710795e-07
1.360595e-07
6.589811e-08
3.294244e-08
1.295981e-08
2.875731e-09
6.384168e-10
4.864194e-10
3.473442e-10
1.612818e-10
3.623564e-11
6.303591e-13
2.856632e-13
4.315374e-13
2.695926e-13
2.117352e-13
1.271667e-13
5.697616e-14
2.325479e-14
7.267939e-15
4.276795e-16
-2.792968e-16
-2.492445e-16
-1.440293e-16
-4.343629e-17
-1.392550e-19
7.158163e-19
3.144712e-19
1.587696e-19
4.180839e-20
-1.086436e-22
-8.502416e-23
-1.311152e-22
-3.238376e-23
1.655801e-23
1.495019e-23
4.067155e-24
2.175009e-25
-3.180159e-26
-1.164136e-25
4.535782e-26
3.908758e-26
2.172669e-26
8.125920e-27
7.869001e-28
-7.247566e-28
-5.299588e-28
-2.572840e-28
-1.362815e-28
-5.269070e-29
-2.445838e-29
1.000000e+00
1.000000e+00
1.000000e+00
1.000000e+00
1.000000e+00
1.000000e+00
1.000004e+00
9.999618e-01
9.999889e-01
9.977134e-01
9.838707e-01
9.446907e-01
8.634649e-01
7.326209e-01
5.157561e-01
4.002068e-01
2.115965e-01
1.117408e-01
5.059062e-02
2.042784e-02
7.055403e-03
1.720395e-03
2.196946e-04
6.599493e-06
7.765521e-07
1.055142e-06
1.485974e-06
6.079705e-07
4.303810e-07
2.712671e-07
1.392675e-07
4.368121e-08
3.314374e-08
2.647259e-08
1.601502e-08
5.452838e-09
6.079781e-10
3.528499e-10
2.651206e-10
1.750222e-10
8.698527e-11
3.913359e-11
1.457374e-11
2.163071e-12
9.349999e-14
1.023851e-13
5.707661e-14
2.259473e-14
1.548171e-14
9.040370e-15
4.164763e-15
9.781560e-16
-1.323427e-16
-1.116863e-16
-6.569754e-17
-3.029063e-17
-7.353655e-18
2.790456e-20
1.252638e-19
9.650349e-20
4.463652e-20
1.987593e-20
8.468165e-21
3.536707e-21
1.466651e-21
6.018146e-22
2.530117e-22
1.021430e-22
1.260596e-23
-3.921730e-27
-2.257225e-25
-1.335232e-25
-5.281965e-26
-2.249925e-26
-9.569135e-27
-3.337361e-27
-1.655612e-27
-9.261145e-28
-4.851618e-28
-1.971122e-28
1.000000e+00
1.000000e+00
1.000000e+00
1.000000e+00
1.000000e+00
1.000000e+00
1.000002e+00
9.999845e-01
9.999948e-01
9.999700e-01
9.962291e-01
9.802142e-01
9.386647e-01
8.558931e-01
7.276439e-01
5.149909e-01
4.022839e-01
2.167370e-01
1.190057e-01
5.372876e-02
2.141901e-02
7.359412e-03
2.233839e-03
7.194896e-04
3.157955e-04
1.390128e-04
6.197948e-05
2.840001e-05
1.260886e-05
5.753215e-06
2.786754e-06
8.983082e-07
1.240766e-07
2.835740e-08
2.097925e-08
1.643093e-08
8.944236e-09
2.487822e-09
2.287117e-10
1.324532e-10
6.598487e-11
3.685547e-11
3.017443e-11
1.927802e-11
9.168414e-12
4.166524e-12
1.598607e-12
2.231512e-13
1.334911e-14
7.251621e-15
5.148485e-15
3.353864e-15
1.724777e-15
6.345682e-16
9.399993e-17
-2.886270e-17
-2.440517e-17
-1.371369e-17
-6.238055e-18
-2.813725e-18
-1.254842e-18
-5.531885e-19
-2.416376e-19
-1.042676e-19
-4.586322e-20
-1.312196e-20
2.581624e-22
1.403399e-22
9.934453e-23
5.012171e-23
2.330862e-23
1.065539e-23
4.333032e-24
1.156631e-24
2.150503e-25
1.938537e-26
6.043427e-27
1.885942e-26
1.477984e-26
5.590728e-27
1.000000e+00
1.000000e+00
1.000000e+00
1.000000e+00
1.000000e+00
1.000000e+00
1.000001e+00
9.999936e-01
9.999932e-01
9.999938e-01
9.996735e-01
9.947735e-01
9.764119e-01
9.334723e-01
8.476098e-01
7.249976e-01
5.158347e-01
4.044574e-01
2.192312e-01
1.311791e-01
6.154425e-02
2.465671e-02
8.084938e-03
1.893608e-03
3.534051e-04
1.439673e-04
6.023758e-05
2.565928e-05
1.211026e-05
5.187010e-06
2.785032e-06
2.204056e-06
1.214102e-06
3.145961e-07
2.203072e-08
1.276825e-08
1.267267e-08
9.353485e-09
4.781053e-09
2.249362e-09
8.895154e-10
1.792484e-10
2.664447e-11
1.762422e-11
7.668378e-12
4.038424e-12
3.155863e-12
2.002870e-12
8.656934e-13
2.147490e-13
1.483429e-15
9.740731e-16
1.390469e-15
8.866692e-16
5.070708e-16
2.384266e-16
8.077056e-17
2.580636e-17
8.198281e-18
2.677891e-18
9.362536e-19
3.309632e-19
4.451792e-20
-8.420728e-20
-5.601169e-20
-3.937730e-20
-2.234645e-20
-9.745559e-21
-4.161047e-21
-1.854159e-21
-4.878534e-22
-4.156075e-23
-4.763954e-24
8.336450e-25
2.176268e-25
1.553820e-26
4.632288e-27
1.095181e-26
-6.964744e-27
-8.778411e-27
1.000000e+00
1.000000e+00
1.000000e+00
1.000000e+00
1.000000e+00
1.000000e+00
1.000000e+00
9.999986e-01
9.999942e-01
9.999949e-01
9.999994e-01
9.992704e-01
9.929787e-01
9.723948e-01
9.301923e-01
8.318903e-01
7.228515e-01
5.194954e-01
4.071143e-01
2.223058e-01
1.368526e-01
6.861554e-02
3.016949e-02
1.135969e-02
3.513178e-03
9.876445e-04
4.594369e-04
2.275478e-04
1.155343e-04
4.157153e-05
7.919280e-06
2.223946e-06
1.805985e-06
1.328356e-06
6.074021e-07
1.314457e-07
1.287883e-08
9.328868e-09
2.226849e-09
2.199438e-09
1.762728e-09
1.117305e-09
5.426406e-10
2.548537e-10
9.970138e-11
1.939985e-11
2.341374e-12
1.600165e-12
9.884937e-13
8.701038e-13
4.767060e-13
1.779662e-13
2.422115e-14
-1.361487e-15
5.952341e-17
1.633386e-16
5.296270e-18
-6.288357e-17
-2.171760e-17
-1.058329e-18
-2.250698e-18
-3.561706e-19
2.707870e-19
2.646524e-19
1.245422e-19
5.249945e-20
1.732089e-20
3.835143e-21
-1.787409e-21
-1.877107e-21
-1.534321e-21
-6.370717e-22
-2.122100e-23
8.747799e-25
3.930609e-24
2.767010e-24
1.210692e-24
3.481153e-25
4.041207e-26
-8.063531e-27
1.000000e+00
1.000000e+00
1.000000e+00
1.000000e+00
1.000000e+00
1.000000e+00
1.000000e+00
1.000000e+00
9.999972e-01
9.999955e-01
9.999958e-01
9.999418e-01
9.989873e-01
9.901882e-01
9.711556e-01
9.209894e-01
8.231512e-01
7.195564e-01
5.218421e-01
4.078581e-01
2.281392e-01
1.366374e-01
6.952304e-02
3.124209e-02
1.175528e-02
3.400060e-03
5.698437e-04
2.167406e-04
1.211050e-04
9.802111e-05
5.529611e-05
1.582092e-05
1.780852e-06
1.293287e-06
1.016293e-06
6.726764e-07
3.409734e-07
1.592204e-07
6.272854e-08
1.086910e-08
8.593338e-10
4.712526e-10
4.754329e-10
2.569941e-10
1.993049e-10
1.279230e-10
6.412016e-11
2.186069e-11
2.307061e-12
5.041775e-13
4.230706e-13
3.493416e-13
2.139745e-13
9.577881e-14
4.056499e-14
1.762192e-14
7.794937e-15
3.444352e-15
1.522581e-15
7.075201e-16
2.233162e-16
3.145774e-18
-5.530935e-18
-1.113656e-18
-3.869296e-19
-1.155146e-19
-2.301588e-20
3.185266e-21
2.726008e-21
2.866020e-22
-1.099394e-21
-1.243845e-21
-9.343056e-22
-4.010434e-22
-1.765333e-22
-7.995334e-23
-2.486783e-23
-8.979842e-25
1.846766e-26
6.933752e-26
1.000000e+00
1.000000e+00
1.000000e+00
1.000000e+00
1.000000e+00
1.000000e+00
1.000000e+00
1.000000e+00
9.999994e-01
9.999970e-01
9.999970e-01
9.999731e-01
9.999976e-01
9.975327e-01
9.896719e-01
9.671688e-01
9.134815e-01
8.160300e-01
7.166245e-01
5.215108e-01
4.107891e-01
2.332307e-01
1.463728e-01
7.661880e-02
3.644529e-02
1.522550e-02
5.252331e-03
1.337744e-03
3.042036e-04
1.019314e-04
8.192504e-05
6.230358e-05
2.917392e-05
7.717834e-06
9.834159e-07
5.602224e-07
2.807422e-07
1.571733e-07
1.247348e-07
7.876439e-08
3.828132e-08
1.832507e-08
6.190165e-09
9.274178e-10
1.030864e-10
1.236302e-10
7.795474e-11
5.449659e-11
3.364295e-11
1.296237e-11
2.195803e-12
3.335268e-13
2.052006e-13
8.860957e-14
4.126561e-14
9.435457e-15
4.871876e-15
2.684732e-15
1.503266e-15
7.095825e-16
5.764390e-16
3.491603e-16
1.614099e-16
7.218080e-17
3.312832e-17
1.223276e-17
8.723534e-19
6.964494e-21
-1.430582e-20
6.436212e-23
-8.317619e-22
-9.968115e-22
-9.362444e-22
-3.091226e-22
-1.473163e-22
-7.910179e-23
-6.274932e-23
-3.790275e-23
-1.809679e-23
-6.815715e-24
1.000000e+00
1.000000e+00
1.000000e+00
1.000000e+00
1.000000e+00
1.000000e+00
1.000000e+00
1.000000e+00
1.000000e+00
9.999985e-01
9.999988e-01
9.999872e-01
9.999888e-01
9.996280e-01
9.969494e-01
9.879591e-01
9.629711e-01
9.062135e-01
8.112254e-01
7.119495e-01
5.210690e-01
4.143852e-01
2.385918e-01
1.469217e-01
7.672781e-02
3.694725e-02
1.601990e-02
5.932423e-03
1.826429e-03
4.495954e-04
9.825226e-05
6.122028e-05
4.662686e-05
3.072995e-05
1.461780e-05
5.649142e-06
2.399415e-06
7.231077e-07
1.146909e-07
6.275083e-08
3.141132e-08
1.821092e-08
1.435368e-08
8.925076e-09
4.399404e-09
1.461974e-09
1.293980e-10
2.742289e-11
3.080154e-11
2.575070e-11
1.639754e-11
7.775152e-12
3.566192e-12
1.615332e-12
7.612429e-13
3.339877e-13
1.488334e-13
6.969932e-14
2.298663e-14
2.140884e-15
2.299588e-16
2.107315e-16
1.159550e-16
1.970141e-17
3.062983e-17
2.539446e-17
1.762549e-17
5.648931e-18
1.263350e-19
-2.562289e-20
-2.433832e-20
-1.273225e-20
-7.179433e-21
-3.894380e-21
-1.711635e-21
-3.398631e-22
-4.706458e-23
-2.981308e-23
-1.625212e-23
-5.512994e-24
1.000000e+00
1.000000e+00
1.000000e+00
1.000000e+00
1.000000e+00
1.000000e+00
1.000000e+00
1.000000e+00
1.000000e+00
9.999994e-01
9.999995e-01
9.999940e-01
9.999928e-01
9.999894e-01
9.993550e-01
9.962148e-01
9.859907e-01
9.586043e-01
8.992887e-01
8.087999e-01
7.066969e-01
5.196770e-01
4.154740e-01
2.429660e-01
1.590969e-01
8.337406e-02
4.024624e-02
1.764045e-02
6.900342e-03
2.345811e-03
6.716645e-04
1.645640e-04
6.013981e-05
3.734213e-05
2.329508e-05
1.074804e-05
4.085668e-06
2.477495e-06
1.449458e-06
7.326705e-07
3.024913e-07
6.835945e-08
1.093663e-08
8.340890e-09
4.460430e-09
3.589112e-09
2.250135e-09
8.756703e-10
1.555136e-10
2.587246e-11
8.607662e-12
7.582800e-12
3.539749e-12
1.581621e-12
7.903122e-13
2.087777e-13
9.505437e-14
6.915473e-14
5.668403e-14
3.458288e-14
1.596461e-14
7.302716e-15
3.444313e-15
1.390834e-15
1.753283e-16
1.395238e-17
1.720116e-17
1.466746e-17
8.761038e-18
3.901263e-18
1.676201e-18
7.354257e-19
2.199743e-19
6.739307e-21
-4.242596e-21
-2.220719e-21
-1.151265e-21
-5.291101e-22
-2.446305e-22
-9.174026e-23
1.000000e+00
1.000000e+00
1.000000e+00
1.000000e+00
1.000000e+00
1.000000e+00
1.000000e+00
1.000000e+00
1.000000e+00
9.999998e-01
9.999998e-01
9.999983e-01
9.999943e-01
9.999945e-01
9.999367e-01
9.991152e-01
9.953286e-01
9.837837e-01
9.546899e-01
8.884885e-01
8.115114e-01
7.049159e-01
5.184883e-01
4.165319e-01
2.444540e-01
1.648737e-01
8.846202e-02
4.337651e-02
1.930787e-02
7.740358e-03
2.740181e-03
8.305612e-04
2.277153e-04
7.740734e-05
4.337146e-05
2.862730e-05
1.358522e-05
3.794433e-06
1.516396e-06
7.157955e-07
5.803828e-07
3.741057e-07
1.987689e-07
6.983493e-08
1.110708e-08
3.113764e-09
2.190090e-09
1.745897e-09
1.107452e-09
5.381953e-10
2.476466e-10
1.121587e-10
5.191486e-11
2.357716e-11
1.111385e-11
5.250585e-12
1.780431e-12
1.955200e-13
4.428741e-14
3.075570e-14
1.395527e-14
3.697509e-15
2.964803e-15
2.621736e-15
1.867961e-15
6.102146e-16
3.698150e-17
1.451677e-17
8.777739e-18
1.253222e-18
1.162180e-18
7.412781e-19
5.739202e-19
3.265344e-19
1.415378e-19
5.760522e-20
2.355096e-20
9.693647e-21
4.128259e-21
1.549893e-21
1.000000e+00
1.000000e+00
1.000000e+00
1.000000e+00
1.000000e+00
1.000000e+00
1.000000e+00
1.000000e+00
1.000000e+00
9.999999e-01
9.999998e-01
9.999998e-01
9.999969e-01
9.999956e-01
9.999961e-01
9.998396e-01
9.989878e-01
9.937548e-01
9.845998e-01
9.402819e-01
8.937448e-01
7.989714e-01
7.032595e-01
5.214519e-01
4.170811e-01
2.477761e-01
1.704250e-01
9.360328e-02
4.702069e-02
2.140884e-02
8.814651e-03
3.225779e-03
1.019635e-03
2.759043e-04
7.682042e-05
4.040582e-05
3.060383e-05
2.013354e-05
9.682336e-06
3.035092e-06
5.876640e-07
3.477423e-07
1.978333e-07
1.612623e-07
1.015056e-07
4.207191e-08
9.509917e-09
1.579662e-09
1.093878e-09
4.974255e-10
2.120677e-10
7.216565e-11
5.218566e-11
1.698932e-11
8.977514e-12
5.290366e-12
4.223763e-12
2.555844e-12
1.180676e-12
5.381885e-13
2.565099e-13
1.060059e-13
1.586150e-14
2.610613e-15
1.860358e-15
1.512109e-15
9.334929e-16
4.292649e-16
2.034488e-16
9.200753e-17
3.000749e-17
2.697469e-18
3.433869e-19
2.506432e-19
-1.943930e-20
4.989352e-20
-7.850979e-22
-6.351955e-23
3.980706e-22
1.005775e-21
1.000000e+00
1.000000e+00
1.000000e+00
1.000000e+00
1.000000e+00
1.000000e+00
1.000000e+00
1.000000e+00
1.000000e+00
1.000000e+00
9.999999e-01
9.999999e-01
9.999991e-01
9.999968e-01
9.999970e-01
9.999270e-01
9.999062e-01
9.968821e-01
9.967970e-01
9.755129e-01
9.436068e-01
8.871498e-01
7.906738e-01
7.010316e-01
5.218953e-01
4.173566e-01
2.502468e-01
1.743118e-01
9.756179e-02
5.026189e-02
2.344976e-02
9.941996e-03
3.809380e-03
1.291891e-03
3.731811e-04
8.568084e-05
2.984135e-05
2.044074e-05
1.496303e-05
1.000893e-05
5.213318e-06
1.924562e-06
5.509767e-07
1.592061e-07
9.779401e-08
7.767253e-08
5.053183e-08
2.493682e-08
1.176283e-08
5.622455e-09
2.692426e-09
1.303573e-09
6.145634e-10
2.920708e-10
9.985098e-11
1.377836e-11
2.310414e-12
1.816597e-12
5.293057e-13
4.312135e-13
2.584048e-13
1.986696e-13
1.412432e-13
4.730681e-14
5.706249e-15
8.616610e-16
7.711217e-16
2.643463e-16
2.004591e-16
9.524879e-17
7.622951e-17
4.509836e-17
2.018109e-17
8.989868e-18
4.066937e-18
1.745013e-18
7.695727e-19
3.382102e-19
1.495778e-19
6.345969e-20
1.000000e+00
1.000000e+00
1.000000e+00
1.000000e+00
1.000000e+00
1.000000e+00
1.000000e+00
1.000000e+00
1.000000e+00
1.000000e+00
1.000000e+00
9.999999e-01
9.999999e-01
9.999983e-01
9.999988e-01
9.999672e-01
9.999821e-01
9.986474e-01
9.987338e-01
9.924712e-01
9.748986e-01
9.411994e-01
8.823081e-01
7.836552e-01
6.994324e-01
5.244156e-01
4.205665e-01
2.545320e-01
1.789507e-01
1.013741e-01
5.349976e-02
2.545469e-02
1.098797e-02
4.331654e-03
1.565516e-03
5.144157e-04
1.479311e-04
4.608906e-05
1.911189e-05
1.179326e-05
7.889863e-06
4.312708e-06
2.385953e-06
1.176946e-06
4.149164e-07
8.249701e-08
4.519598e-08
2.468932e-08
1.075018e-08
5.604967e-09
2.504395e-09
1.216536e-09
5.842052e-10
3.011247e-10
2.344653e-10
1.414028e-10
6.827175e-11
3.168082e-11
1.526531e-11
6.007884e-12
1.057197e-12
1.466751e-13
1.373352e-13
1.105833e-13
6.795690e-14
3.175585e-14
1.458420e-14
7.155810e-15
2.528751e-15
3.069761e-16
7.706408e-17
3.997349e-17
9.310020e-18
5.784587e-18
3.336297e-18
1.788659e-18
6.026263e-19
7.367443e-20
9.399293e-20
5.728442e-20
1.000000e+00
1.000000e+00
1.000000e+00
1.000000e+00
1.000000e+00
1.000000e+00
1.000000e+00
1.000000e+00
1.000000e+00
1.000000e+00
1.000000e+00
1.000000e+00
1.000000e+00
9.999992e-01
9.999993e-01
9.999850e-01
9.999973e-01
9.993943e-01
9.993912e-01
9.979573e-01
9.905138e-01
9.730512e-01
9.372641e-01
8.797053e-01
7.715197e-01
6.918089e-01
5.232464e-01
4.221472e-01
2.585123e-01
1.839490e-01
1.047898e-01
5.697367e-02
2.781115e-02
1.219325e-02
4.826131e-03
1.741658e-03
5.759521e-04
1.822190e-04
6.015328e-05
2.342566e-05
1.237985e-05
7.718170e-06
3.658422e-06
1.702516e-06
1.133048e-06
6.913891e-07
3.400887e-07
1.683358e-07
8.682479e-08
4.269163e-08
2.077631e-08
1.090073e-08
3.984579e-09
7.641517e-10
2.064809e-10
1.340886e-10
6.623977e-11
2.942111e-11
1.505762e-11
1.119665e-11
7.830188e-12
3.040653e-12
5.774103e-13
1.019763e-13
5.516707e-14
2.807214e-14
1.340626e-14
7.179874e-15
5.906063e-15
3.600102e-15
1.696075e-15
7.585946e-16
3.521008e-16
1.616704e-16
7.235449e-17
3.333994e-17
1.469421e-17
7.194210e-18
2.313477e-18
3.529875e-19
1.000000e+00
1.000000e+00
1.000000e+00
1.000000e+00
1.000000e+00
1.000000e+00
1.000000e+00
1.000000e+00
1.000000e+00
1.000000e+00
1.000000e+00
1.000000e+00
1.000000e+00
9.999996e-01
9.999998e-01
9.999931e-01
9.999987e-01
9.997723e-01
9.995615e-01
9.994667e-01
9.969870e-01
9.892669e-01
9.704653e-01
9.338093e-01
8.782979e-01
7.662032e-01
6.869171e-01
5.219522e-01
4.232487e-01
2.619096e-01
1.898949e-01
1.067318e-01
5.988898e-02
3.033868e-02
1.378504e-02
5.610221e-03
2.047442e-03
6.788663e-04
2.141630e-04
7.137000e-05
2.687650e-05
1.337238e-05
9.675727e-06
4.378847e-06
1.390504e-06
7.063210e-07
3.200457e-07
1.651437e-07
8.631919e-08
4.027678e-08
1.964979e-08
1.110088e-08
9.005855e-09
5.721504e-09
2.777594e-09
1.327511e-09
6.368518e-10
2.719465e-10
6.312589e-11
1.068581e-11
7.268021e-12
5.972647e-12
3.851789e-12
1.850808e-12
8.659128e-13
4.168558e-13
1.449455e-13
2.011235e-14
4.272357e-15
3.123053e-15
1.498279e-15
7.845236e-16
2.522848e-16
1.229591e-16
6.341961e-17
2.800678e-17
9.420271e-18
7.235083e-18
5.799842e-18
2.908538e-18
1.000000e+00
1.000000e+00
1.000000e+00
1.000000e+00
1.000000e+00