# vtk DataFile Version 3.0
MUSCL
ASCII
DATASET STRUCTURED_POINTS
DIMENSIONS 80 80 1
ORIGIN 0 0 0
SPACING 0.0125 0.0125 1
POINT_DATA 6400
SCALARS Temperature double 1
LOOKUP_TABLE default
0.000000e+00
-3.125000e-02
-7.812500e-04
-1.953125e-05
-4.882813e-07
-1.220703e-08
-3.051758e-10
-7.629395e-12
-1.907349e-13
-4.768372e-15
-1.192093e-16
-2.980232e-18
-7.450581e-20
-1.862645e-21
-4.656613e-23
-1.164153e-24
-2.910383e-26
-7.275958e-28
-1.818989e-29
-4.547474e-31
-1.136868e-32
-2.842171e-34
-7.105427e-36
-1.776357e-37
-4.440892e-39
-1.110223e-40
-2.775558e-42
-6.938894e-44
-1.734723e-45
-4.336809e-47
-1.084202e-48
-2.710505e-50
-6.776264e-52
-1.694066e-53
-4.235165e-55
-1.058791e-56
-2.646978e-58
-6.617445e-60
-1.654361e-61
-4.135903e-63
-1.033976e-64
-2.584939e-66
-6.462349e-68
-1.615587e-69
-4.038968e-71
-1.009742e-72
-2.524355e-74
-6.310887e-76
-1.577722e-77
-3.944305e-79
-9.860761e-81
-2.465190e-82
-6.162976e-84
-1.540744e-85
-3.851860e-87
-9.629650e-89
-2.407412e-90
-6.018531e-92
-1.504633e-93
-3.761582e-95
-9.403955e-97
-2.350989e-98
-5.877472e-100
-1.469368e-101
-3.673420e-103
-9.183550e-105
-2.295887e-106
-5.739719e-108
-1.434930e-109
-3.587324e-111
-8.968310e-113
-2.242078e-114
-5.605194e-116
-1.401298e-117
-3.503246e-119
-8.758115e-121
-2.189529e-122
-5.473822e-124
-1.368456e-125
-3.421139e-127
1.968750e+00
3.125000e-02
7.812500e-04
1.953125e-05
4.882813e-07
1.220703e-08
3.051758e-10
7.629395e-12
1.907349e-13
4.768372e-15
1.192093e-16
2.980232e-18
7.450581e-20
1.862645e-21
4.656613e-23
1.164153e-24
2.910383e-26
7.275958e-28
1.818989e-29
4.547474e-31
1.136868e-32
2.842171e-34
7.105427e-36
1.776357e-37
4.440892e-39
1.110223e-40
2.775558e-42
6.938894e-44
1.734723e-45
4.336809e-47
1.084202e-48
2.710505e-50
6.776264e-52
1.694066e-53
4.235165e-55
1.058791e-56
2.646978e-58
6.617445e-60
1.654361e-61
4.135903e-63
1.033976e-64
2.584939e-66
6.462349e-68
1.615587e-69
4.038968e-71
1.009742e-72
2.524355e-74
6.310887e-76
1.577722e-77
3.944305e-79
9.860761e-81
2.465190e-82
6.162976e-84
1.540744e-85
3.851860e-87
9.629650e-89
2.407412e-90
6.018531e-92
1.504633e-93
3.761582e-95
9.403955e-97
2.350989e-98
5.877472e-100
1.469368e-101
3.673420e-103
9.183550e-105
2.295887e-106
5.739719e-108
1.434930e-109
3.587324e-111
8.968310e-113
2.242078e-114
5.605194e-116
1.401298e-117
3.503246e-119
8.758115e-121
2.189529e-122
5.473822e-124
1.368456e-125
3.421139e-127
1.974219e+00
2.578125e-02
5.078125e-04
1.013184e-05
2.052307e-07
4.229546e-09
8.884072e-11
1.904182e-12
4.166388e-14
9.302094e-16
2.116672e-17
4.900082e-19
1.151596e-20
2.741319e-22
6.595165e-24
1.600391e-25
3.910228e-27
9.605415e-29
2.369449e-30
5.863803e-32
1.454734e-33
3.615806e-35
9.000081e-37
2.242627e-38
5.592704e-40
1.395577e-41
3.484068e-43
8.701032e-45
2.173545e-46
5.430649e-48
1.357060e-49
3.391520e-51
8.476683e-53
2.118774e-54
5.296189e-56
1.323908e-57
3.309508e-59
8.273278e-61
2.068228e-62
5.170396e-64
1.292567e-65
3.231356e-67
8.078277e-69
2.019548e-70
5.048830e-72
1.262200e-73
3.155486e-75
7.888688e-77
1.972167e-78
4.930408e-80
1.232600e-81
3.081498e-83
7.703738e-85
1.925933e-86
4.814831e-88
1.203707e-89
3.009268e-91
7.523168e-93
1.880792e-94
4.701979e-96
1.175495e-97
2.938736e-99
7.346841e-101
1.836710e-102
4.591775e-104
1.147944e-105
2.869859e-107
7.174648e-109
1.793662e-110
4.484155e-112
1.121039e-113
2.802597e-115
7.006492e-117
1.751623e-118
4.379058e-120
1.094764e-121
2.736911e-123
6.842278e-125
1.710569e-126
4.276424e-128
1.968238e+00
3.176226e-02
8.353064e-04
2.113596e-05
5.335297e-07
1.344398e-08
3.383205e-10
8.505618e-12
2.136820e-13
5.365306e-15
1.346618e-16
3.378796e-18
8.475780e-20
2.125798e-21
5.330983e-23
1.336747e-24
3.351643e-26
8.403120e-28
2.106704e-29
5.281419e-31
1.323992e-32
3.319018e-34
8.320046e-36
2.085618e-37
5.228027e-39
1.310496e-40
3.284949e-42
8.234126e-44
2.063965e-45
5.173490e-47
1.296765e-48
3.250392e-50
8.147171e-52
2.042090e-53
5.118465e-55
1.282926e-56
3.215589e-58
8.059655e-60
2.020084e-61
5.063136e-63
1.269016e-64
3.180617e-66
7.971739e-68
1.997984e-69
5.007581e-71
1.255051e-72
3.145516e-74
7.883511e-76
1.975808e-77
4.951846e-79
1.241043e-80
3.110311e-82
7.795038e-84
1.953574e-85
4.895973e-87
1.227002e-88
3.075029e-90
7.706381e-92
1.931297e-93
4.839998e-95
1.212938e-96
3.039693e-98
7.617599e-100
1.908991e-101
4.783958e-103
1.198859e-104
3.004323e-106
7.528744e-108
1.886670e-109
4.727886e-111
1.184774e-112
2.968942e-114
7.439870e-116
1.864347e-117
4.671814e-119
1.170690e-120
2.933568e-122
7.351027e-124
1.842033e-125
4.615774e-127
1.974206e+00
2.579406e-02
5.097419e-04
1.021816e-05
2.082633e-07
4.325061e-09
9.166741e-11
1.984564e-12
4.388815e-14
9.905686e-16
2.278134e-17
5.327376e-19
1.263751e-20
3.033845e-22
7.354392e-24
1.796682e-25
4.416167e-27
1.090629e-28
2.703274e-30
6.719082e-32
1.673575e-33
4.175147e-35
1.042841e-36
2.607083e-38
6.522040e-40
1.632412e-41
4.087320e-43
1.023689e-44
2.564406e-46
6.424977e-48
1.609922e-49
4.034352e-51
1.011040e-52
2.533853e-54
6.350495e-56
1.591632e-57
3.989182e-59
9.998357e-61
2.505968e-62
6.280921e-64
1.574240e-65
3.945643e-67
9.889249e-69
2.478604e-70
6.212252e-72
1.557001e-73
3.902350e-75
9.780503e-77
2.451284e-78
6.143610e-80
1.539753e-81
3.859009e-83
9.671591e-85
2.423915e-86
6.074833e-88
1.522469e-89
3.815577e-91
9.562451e-93
2.396490e-94
6.005918e-96
1.505153e-97
3.772066e-99
9.453122e-101
2.369020e-102
5.936900e-104
1.487812e-105
3.728499e-107
9.343668e-109
2.341522e-110
5.867818e-112
1.470458e-113
3.684903e-115
9.234152e-117
2.314012e-118
5.798714e-120
1.453100e-121
3.641302e-123
9.124637e-125
2.286505e-126
5.729626e-128
1.968192e+00
3.180845e-02
8.454230e-04
2.139103e-05
5.399823e-07
1.360768e-08
3.424838e-10
8.611709e-12
2.163899e-13
5.434512e-15
1.364323e-16
3.424127e-18
8.591911e-20
2.155562e-21
5.407292e-23
1.356315e-24
3.401827e-26
8.531834e-28
2.139717e-29
5.366089e-31
1.345706e-32
3.374703e-34
8.462830e-36
2.122225e-37
5.321868e-39
1.334548e-40
3.346588e-42
8.392063e-44
2.104427e-45
5.277129e-47
1.323307e-48
3.318354e-50
8.321160e-52
2.086625e-53
5.232438e-55
1.312089e-56
3.290194e-58
8.250482e-60
2.068885e-61
5.187916e-63
1.300915e-64
3.262151e-66
8.180099e-68
2.051221e-69
5.143584e-71
1.289789e-72
3.234227e-74
8.110019e-76
2.033633e-77
5.099442e-79
1.278710e-80
3.206422e-82
8.040234e-84
2.016118e-85
5.055483e-87
1.267677e-88
3.178731e-90
7.970734e-92
1.998675e-93
5.011701e-95
1.256688e-96
3.151151e-98
7.901510e-100
1.981300e-101
4.968092e-103
1.245743e-104
3.123678e-106
7.832553e-108
1.963992e-109
4.924650e-111
1.234839e-112
3.096309e-114
7.763858e-116
1.946749e-117
4.881370e-119
1.223975e-120
3.069042e-122
7.695416e-124
1.929570e-125
4.838249e-127
1.974205e+00
2.579521e-02
5.100797e-04
1.023246e-05
2.087331e-07
4.338987e-09
9.205862e-11
1.995215e-12
4.417247e-14
9.980622e-16
2.297718e-17
5.378260e-19
1.276921e-20
3.067840e-22
7.441979e-24
1.819219e-25
4.474107e-27
1.105515e-28
2.741502e-30
6.817219e-32
1.698762e-33
4.239773e-35
1.059421e-36
2.649610e-38
6.631102e-40
1.660378e-41
4.159017e-43
1.042068e-44
2.611510e-46
6.545685e-48
1.640849e-49
4.113578e-51
1.031332e-52
2.585818e-54
6.483546e-56
1.625693e-57
4.076359e-59
1.022145e-60
2.563048e-62
6.426940e-64
1.611587e-65
4.041148e-67
1.013343e-68
2.541025e-70
6.371793e-72
1.597770e-73
4.006515e-75
1.004660e-76
2.519247e-78
6.317164e-80
1.584065e-81
3.972129e-83
9.960315e-85
2.497596e-86
6.262831e-88
1.570430e-89
3.937909e-91
9.874434e-93
2.476042e-94
6.208736e-96
1.556853e-97
3.903834e-99
9.788911e-101
2.454577e-102
6.154861e-104
1.543331e-105
3.869895e-107
9.703726e-109
2.433196e-110
6.101196e-112
1.529861e-113
3.836086e-115
9.618868e-117
2.411897e-118
6.047735e-120
1.516443e-121
3.802405e-123
9.534327e-125
2.390677e-126
5.994472e-128
1.968187e+00
3.181263e-02
8.472219e-04
2.143636e-05
5.411273e-07
1.363666e-08
3.432179e-10
8.630328e-12
2.168625e-13
5.446514e-15
1.367373e-16
3.431878e-18
8.611618e-20
2.160574e-21
5.420040e-23
1.359558e-24
3.410080e-26
8.552839e-28
2.145063e-29
5.379702e-31
1.349172e-32
3.383530e-34
8.485311e-36
2.127952e-37
5.336457e-39
1.338265e-40
3.356061e-42
8.416203e-44
2.110580e-45
5.292813e-47
1.327305e-48
3.328548e-50
8.347152e-52
2.093253e-53
5.249340e-55
1.316399e-56
3.301189e-58
8.278527e-60
2.076039e-61
5.206166e-63
1.305570e-64
3.274029e-66
8.210405e-68
2.058954e-69
5.163314e-71
1.294823e-72
3.247074e-74
8.142801e-76
2.041998e-77
5.120789e-79
1.284157e-80
3.220324e-82
8.075710e-84
2.025172e-85
5.078586e-87
1.273573e-88
3.193776e-90
8.009126e-92
2.008472e-93
5.036701e-95
1.263067e-96
3.167428e-98
7.943043e-100
1.991897e-101
4.995130e-103
1.252641e-104
3.141277e-106
7.877451e-108
1.975446e-109
4.953867e-111
1.242291e-112
3.115319e-114
7.812345e-116
1.959116e-117
4.912909e-119
1.232018e-120
3.089552e-122
7.747716e-124
1.942906e-125
4.872250e-127
1.974205e+00
2.579532e-02
5.101379e-04
1.023497e-05
2.088159e-07
4.341444e-09
9.212764e-11
1.997091e-12
4.422241e-14
9.993738e-16
2.301130e-17
5.387080e-19
1.279191e-20
3.073662e-22
7.456878e-24
1.823027e-25
4.483825e-27
1.107993e-28
2.747820e-30
6.833319e-32
1.702864e-33
4.250223e-35
1.062083e-36
2.656390e-38
6.648374e-40
1.664778e-41
4.170228e-43
1.044924e-44
2.618789e-46
6.564233e-48
1.645577e-49
4.125627e-51
1.034404e-52
2.593648e-54
6.503509e-56
1.630783e-57
4.089339e-59
1.025455e-60
2.571491e-62
6.448471e-64
1.617079e-65
4.055157e-67
1.016917e-68
2.550143e-70
6.395053e-72
1.603705e-73
4.021657e-75
1.008523e-76
2.529105e-78
6.342319e-80
1.590484e-81
3.988509e-83
1.000211e-84
2.508262e-86
6.290050e-88
1.577376e-89
3.955635e-91
9.919667e-93
2.487585e-94
6.238191e-96
1.564369e-97
3.923014e-99
9.837852e-101
2.467065e-102
6.186725e-104
1.551461e-105
3.890639e-107
9.756651e-109
2.446699e-110
6.135644e-112
1.538649e-113
3.858505e-115
9.676054e-117
2.426484e-118
6.084941e-120
1.525932e-121
3.826608e-123
9.596051e-125
2.406418e-126
6.034611e-128
1.968187e+00
3.181300e-02
8.475332e-04
2.144421e-05
5.413255e-07
1.364167e-08
3.433450e-10
8.633554e-12
2.169444e-13
5.448594e-15
1.367901e-16
3.433221e-18
8.615033e-20
2.161442e-21
5.422248e-23
1.360120e-24
3.411509e-26
8.556471e-28
2.145987e-29
5.382052e-31
1.349770e-32
3.385051e-34
8.489179e-36
2.128936e-37
5.338960e-39
1.338902e-40
3.357681e-42
8.420324e-44
2.111628e-45
5.295481e-47
1.327984e-48
3.330274e-50
8.351546e-52
2.094371e-53
5.252185e-55
1.317123e-56
3.303032e-58
8.283215e-60
2.077233e-61
5.209203e-63
1.306343e-64
3.275996e-66
8.215414e-68
2.060229e-69
5.166560e-71
1.295649e-72
3.249177e-74
8.148156e-76
2.043362e-77
5.124260e-79
1.285041e-80
3.222574e-82
8.081441e-84
2.026631e-85
5.082302e-87
1.274519e-88
3.196187e-90
8.015266e-92
2.010035e-93
5.040684e-95
1.264082e-96
3.170012e-98
7.949626e-100
1.993574e-101
4.999402e-103
1.253729e-104
3.144049e-106
7.884515e-108
1.977246e-109
4.958453e-111
1.243460e-112
3.118296e-114
7.819930e-116
1.961049e-117
4.917834e-119
1.233273e-120
3.092750e-122
7.755865e-124
1.944982e-125
4.877542e-127
1.974205e+00
2.579533e-02
5.101478e-04
1.023540e-05
2.088302e-07
4.341869e-09
9.213957e-11
1.997416e-12
4.423105e-14
9.996008e-16
2.301721e-17
5.388608e-19
1.279584e-20
3.074670e-22
7.459459e-24
1.823686e-25
4.485508e-27
1.108422e-28
2.748913e-30
6.836103e-32
1.703572e-33
4.252027e-35
1.062542e-36
2.657558e-38
6.651347e-40
1.665534e-41
4.172152e-43
1.045414e-44
2.620034e-46
6.567402e-48
1.646383e-49
4.127679e-51
1.034926e-52
2.594976e-54
6.506889e-56
1.631643e-57
4.091527e-59
1.026012e-60
2.572907e-62
6.452077e-64
1.617997e-65
4.057493e-67
1.017512e-68
2.551656e-70
6.398904e-72
1.604685e-73
4.024152e-75
1.009158e-76
2.530722e-78
6.346436e-80
1.591532e-81
3.991177e-83
1.000891e-84
2.509992e-86
6.294455e-88
1.578498e-89
3.958491e-91
9.926942e-93
2.489438e-94
6.242909e-96
1.565571e-97
3.926075e-99
9.845648e-101
2.469051e-102
6.191784e-104
1.552750e-105
3.893921e-107
9.765013e-109
2.448829e-110
6.141071e-112
1.540032e-113
3.862028e-115
9.685030e-117
2.428771e-118
6.090768e-120
1.527417e-121
3.830391e-123
9.605691e-125
2.408874e-126
6.040871e-128
1.968187e+00
3.181304e-02
8.475864e-04
2.144554e-05
5.413594e-07
1.364253e-08
3.433668e-10
8.634104e-12
2.169584e-13
5.448950e-15
1.367992e-16
3.433451e-18
8.615617e-20
2.161591e-21
5.422626e-23
1.360216e-24
3.411753e-26
8.557093e-28
2.146145e-29
5.382454e-31
1.349872e-32
3.385311e-34
8.489841e-36
2.129104e-37
5.339389e-39
1.339011e-40
3.357958e-42
8.421030e-44
2.111808e-45
5.295938e-47
1.328100e-48
3.330570e-50
8.352299e-52
2.094562e-53
5.252672e-55
1.317247e-56
3.303347e-58
8.284017e-60
2.077437e-61
5.209722e-63
1.306475e-64
3.276332e-66
8.216269e-68
2.060446e-69
5.167113e-71
1.295790e-72
3.249535e-74
8.149067e-76
2.043594e-77
5.124850e-79
1.285191e-80
3.222956e-82
8.082413e-84
2.026878e-85
5.082932e-87
1.274679e-88
3.196594e-90
8.016303e-92
2.010299e-93
5.041355e-95
1.264253e-96
3.170447e-98
7.950732e-100
1.993856e-101
5.000119e-103
1.253912e-104
3.144514e-106
7.885697e-108
1.977546e-109
4.959218e-111
1.243655e-112
3.118792e-114
7.821192e-116
1.961370e-117
4.918652e-119
1.233481e-120
3.093280e-122
7.757213e-124
1.945325e-125
4.878416e-127
1.974205e+00
2.579533e-02
5.101494e-04
1.023548e-05
2.088326e-07
4.341941e-09
9.214161e-11
1.997471e-12
4.423253e-14
9.996396e-16
2.301822e-17
5.388869e-19
1.279651e-20
3.074843e-22
7.459900e-24
1.823799e-25
4.485795e-27
1.108496e-28
2.749100e-30
6.836579e-32
1.703694e-33
4.252336e-35
1.062620e-36
2.657758e-38
6.651856e-40
1.665664e-41
4.172482e-43
1.045498e-44
2.620248e-46
6.567945e-48
1.646521e-49
4.128030e-51
1.035015e-52
2.595204e-54
6.507467e-56
1.631790e-57
4.091902e-59
1.026107e-60
2.573150e-62
6.452694e-64
1.618154e-65
4.057892e-67
1.017613e-68
2.551914e-70
6.399562e-72
1.604852e-73
4.024578e-75
1.009267e-76
2.530998e-78
6.347137e-80
1.591710e-81
3.991631e-83
1.001006e-84
2.510286e-86
6.295203e-88
1.578688e-89
3.958975e-91
9.928173e-93
2.489751e-94
6.243707e-96
1.565774e-97
3.926591e-99
9.846962e-101
2.469385e-102
6.192634e-104
1.552966e-105
3.894472e-107
9.766416e-109
2.449186e-110
6.141980e-112
1.540263e-113
3.862616e-115
9.686527e-117
2.429152e-118
6.091739e-120
1.527664e-121
3.831020e-123
9.607291e-125
2.409281e-126
6.041907e-128
1.968187e+00
3.181304e-02
8.475954e-04
2.144577e-05
5.413651e-07
1.364268e-08
3.433704e-10
8.634198e-12
2.169608e-13
5.449010e-15
1.368007e-16
3.433490e-18
8.615716e-20
2.161616e-21
5.422690e-23
1.360232e-24
3.411794e-26
8.557198e-28
2.146172e-29
5.382522e-31
1.349890e-32
3.385355e-34
8.489954e-36
2.129133e-37
5.339462e-39
1.339030e-40
3.358005e-42
8.421150e-44
2.111838e-45
5.296015e-47
1.328120e-48
3.330620e-50
8.352426e-52
2.094595e-53
5.252755e-55
1.317268e-56
3.303400e-58
8.284154e-60
2.077471e-61
5.209810e-63
1.306498e-64
3.276389e-66
8.216414e-68
2.060483e-69
5.167207e-71
1.295814e-72
3.249596e-74
8.149222e-76
2.043633e-77
5.124950e-79
1.285217e-80
3.223021e-82
8.082578e-84
2.026920e-85
5.083039e-87
1.274706e-88
3.196664e-90
8.016479e-92
2.010344e-93
5.041470e-95
1.264282e-96
3.170521e-98
7.950920e-100
1.993904e-101
5.000240e-103
1.253943e-104
3.144592e-106
7.885897e-108
1.977597e-109
4.959348e-111
1.243688e-112
3.118876e-114
7.821406e-116
1.961424e-117
4.918790e-119
1.233517e-120
3.093369e-122
7.757441e-124
1.945384e-125
4.878564e-127
1.974205e+00
2.579533e-02
5.101497e-04
1.023549e-05
2.088331e-07
4.341953e-09
9.214195e-11
1.997480e-12
4.423278e-14
9.996461e-16
2.301839e-17
5.388913e-19
1.279662e-20
3.074872e-22
7.459975e-24
1.823818e-25
4.485844e-27
1.108508e-28
2.749132e-30
6.836660e-32
1.703714e-33
4.252388e-35
1.062634e-36
2.657792e-38
6.651942e-40
1.665686e-41
4.172538e-43
1.045512e-44
2.620284e-46
6.568037e-48
1.646545e-49
4.128090e-51
1.035030e-52
2.595242e-54
6.507566e-56
1.631815e-57
4.091966e-59
1.026123e-60
2.573191e-62
6.452799e-64
1.618180e-65
4.057960e-67
1.017630e-68
2.551958e-70
6.399674e-72
1.604881e-73
4.024650e-75
1.009285e-76
2.531045e-78
6.347256e-80
1.591741e-81
3.991708e-83
1.001026e-84
2.510336e-86
6.295330e-88
1.578720e-89
3.959058e-91
9.928383e-93
2.489804e-94
6.243842e-96
1.565809e-97
3.926679e-99
9.847185e-101
2.469442e-102
6.192779e-104
1.553003e-105
3.894566e-107
9.766654e-109
2.449247e-110
6.142134e-112
1.540303e-113
3.862716e-115
9.686782e-117
2.429217e-118
6.091903e-120
1.527706e-121
3.831126e-123
9.607562e-125
2.409350e-126
6.042083e-128
1.968187e+00
3.181304e-02
8.475969e-04
2.144581e-05
5.413661e-07
1.364270e-08
3.433711e-10
8.634213e-12
2.169612e-13
5.449020e-15
1.368010e-16
3.433496e-18
8.615732e-20
2.161620e-21
5.422701e-23
1.360235e-24
3.411801e-26
8.557216e-28
2.146177e-29
5.382534e-31
1.349893e-32
3.385363e-34
8.489973e-36
2.129138e-37
5.339474e-39
1.339033e-40
3.358013e-42
8.421171e-44
2.111843e-45
5.296028e-47
1.328123e-48
3.330629e-50
8.352448e-52
2.094600e-53
5.252769e-55
1.317272e-56
3.303410e-58
8.284177e-60
2.077477e-61
5.209825e-63
1.306502e-64
3.276399e-66
8.216439e-68
2.060490e-69
5.167223e-71
1.295818e-72
3.249607e-74
8.149249e-76
2.043640e-77
5.124968e-79
1.285221e-80
3.223032e-82
8.082606e-84
2.026927e-85
5.083057e-87
1.274711e-88
3.196675e-90
8.016509e-92
2.010352e-93
5.041489e-95
1.264287e-96
3.170534e-98
7.950952e-100
1.993912e-101
5.000261e-103
1.253948e-104
3.144606e-106
7.885931e-108
1.977606e-109
4.959370e-111
1.243693e-112
3.118890e-114
7.821442e-116
1.961434e-117
4.918814e-119
1.233523e-120
3.093384e-122
7.757480e-124
1.945393e-125
4.878589e-127
1.974205e+00
2.579533e-02
5.101498e-04
1.023549e-05
2.088331e-07
4.341955e-09
9.214201e-11
1.997482e-12
4.423282e-14
9.996473e-16
2.301842e-17
5.388921e-19
1.279664e-20
3.074877e-22
7.459988e-24
1.823821e-25
4.485852e-27
1.108510e-28
2.749137e-30
6.836674e-32
1.703718e-33
4.252397e-35
1.062636e-36
2.657798e-38
6.651957e-40
1.665690e-41
4.172547e-43
1.045514e-44
2.620290e-46
6.568053e-48
1.646549e-49
4.128100e-51
1.035033e-52
2.595249e-54
6.507582e-56
1.631819e-57
4.091976e-59
1.026126e-60
2.573198e-62
6.452817e-64
1.618185e-65
4.057971e-67
1.017633e-68
2.551966e-70
6.399693e-72
1.604885e-73
4.024662e-75
1.009288e-76
2.531053e-78
6.347276e-80
1.591746e-81
3.991721e-83
1.001029e-84
2.510345e-86
6.295351e-88
1.578726e-89
3.959071e-91
9.928418e-93
2.489813e-94
6.243865e-96
1.565814e-97
3.926694e-99
9.847223e-101
2.469452e-102
6.192804e-104
1.553009e-105
3.894582e-107
9.766695e-109
2.449257e-110
6.142160e-112
1.540309e-113
3.862733e-115
9.686825e-117
2.429228e-118
6.091931e-120
1.527713e-121
3.831144e-123
9.607608e-125
2.409362e-126
6.042113e-128
1.968187e+00
3.181304e-02
8.475971e-04
2.144582e-05
5.413662e-07
1.364270e-08
3.433712e-10
8.634216e-12
2.169612e-13
5.449022e-15
1.368010e-16
3.433497e-18
8.615735e-20
2.161621e-21
5.422702e-23
1.360235e-24
3.411802e-26
8.557219e-28
2.146178e-29
5.382536e-31
1.349893e-32
3.385364e-34
8.489976e-36
2.129138e-37
5.339476e-39
1.339033e-40
3.358014e-42
8.421174e-44
2.111844e-45
5.296031e-47
1.328124e-48
3.330630e-50
8.352452e-52
2.094601e-53
5.252772e-55
1.317272e-56
3.303411e-58
8.284181e-60
2.077478e-61
5.209828e-63
1.306502e-64
3.276401e-66
8.216443e-68
2.060491e-69
5.167226e-71
1.295819e-72
3.249608e-74
8.149253e-76
2.043641e-77
5.124970e-79
1.285222e-80
3.223034e-82
8.082611e-84
2.026929e-85
5.083060e-87
1.274712e-88
3.196677e-90
8.016514e-92
2.010353e-93
5.041492e-95
1.264288e-96
3.170536e-98
7.950958e-100
1.993913e-101
5.000265e-103
1.253949e-104
3.144608e-106
7.885937e-108
1.977607e-109
4.959374e-111
1.243694e-112
3.118892e-114
7.821448e-116
1.961435e-117
4.918818e-119
1.233524e-120
3.093387e-122
7.757487e-124
1.945395e-125
4.878593e-127
1.974205e+00
2.579533e-02
5.101498e-04
1.023549e-05
2.088331e-07
4.341956e-09
9.214202e-11
1.997482e-12
4.423283e-14
9.996474e-16
2.301842e-17
5.388922e-19
1.279665e-20
3.074878e-22
7.459990e-24
1.823822e-25
4.485854e-27
1.108511e-28
2.749138e-30
6.836676e-32
1.703718e-33
4.252398e-35
1.062636e-36
2.657799e-38
6.651960e-40
1.665690e-41
4.172549e-43
1.045515e-44
2.620291e-46
6.568056e-48
1.646549e-49
4.128102e-51
1.035033e-52
2.595250e-54
6.507585e-56
1.631820e-57
4.091978e-59
1.026127e-60
2.573199e-62
6.452820e-64
1.618186e-65
4.057973e-67
1.017634e-68
2.551967e-70
6.399696e-72
1.604886e-73
4.024664e-75
1.009289e-76
2.531054e-78
6.347280e-80
1.591747e-81
3.991723e-83
1.001030e-84
2.510346e-86
6.295355e-88
1.578727e-89
3.959074e-91
9.928424e-93
2.489815e-94
6.243869e-96
1.565815e-97
3.926696e-99
9.847230e-101
2.469453e-102
6.192808e-104
1.553010e-105
3.894585e-107
9.766701e-109
2.449259e-110
6.142165e-112
1.540310e-113
3.862736e-115
9.686832e-117
2.429229e-118
6.091936e-120
1.527714e-121
3.831147e-123
9.607616e-125
2.409364e-126
6.042118e-128
1.968187e+00
3.181304e-02
8.475972e-04
2.144582e-05
5.413662e-07
1.364270e-08
3.433712e-10
8.634216e-12
2.169612e-13
5.449022e-15
1.368010e-16
3.433498e-18
8.615735e-20
2.161621e-21
5.422703e-23
1.360235e-24
3.411803e-26
8.557219e-28
2.146178e-29
5.382536e-31
1.349893e-32
3.385364e-34
8.489976e-36
2.129139e-37
5.339476e-39
1.339033e-40
3.358015e-42
8.421175e-44
2.111844e-45
5.296031e-47
1.328124e-48
3.330631e-50
8.352452e-52
2.094601e-53
5.252772e-55
1.317273e-56
3.303411e-58
8.284181e-60
2.077478e-61
5.209828e-63
1.306502e-64
3.276401e-66
8.216444e-68
2.060491e-69
5.167226e-71
1.295819e-72
3.249609e-74
8.149254e-76
2.043641e-77
5.124971e-79
1.285222e-80
3.223035e-82
8.082612e-84
2.026929e-85
5.083061e-87
1.274712e-88
3.196678e-90
8.016515e-92
2.010353e-93
5.041493e-95
1.264288e-96
3.170536e-98
7.950958e-100
1.993913e-101
5.000265e-103
1.253949e-104
3.144608e-106
7.885938e-108
1.977608e-109
4.959374e-111
1.243694e-112
3.118893e-114
7.821449e-116
1.961435e-117
4.918818e-119
1.233524e-120
3.093387e-122
7.757488e-124
1.945395e-125
4.878594e-127
1.974205e+00
2.579533e-02
5.101498e-04
1.023549e-05
2.088331e-07
4.341956e-09
9.214202e-11
1.997482e-12
4.423283e-14
9.996475e-16
2.301842e-17
5.388922e-19
1.279665e-20
3.074878e-22
7.459990e-24
1.823822e-25
4.485854e-27
1.108511e-28
2.749138e-30
6.836677e-32
1.703719e-33
4.252399e-35
1.062636e-36
2.657799e-38
6.651960e-40
1.665690e-41
4.172549e-43
1.045515e-44
2.620291e-46
6.568056e-48
1.646549e-49
4.128102e-51
1.035033e-52
2.595250e-54
6.507585e-56
1.631820e-57
4.091978e-59
1.026127e-60
2.573199e-62
6.452820e-64
1.618186e-65
4.057974e-67
1.017634e-68
2.551967e-70
6.399696e-72
1.604886e-73
4.024665e-75
1.009289e-76
2.531054e-78
6.347280e-80
1.591747e-81
3.991724e-83
1.001030e-84
2.510346e-86
6.295356e-88
1.578727e-89
3.959074e-91
9.928425e-93
2.489815e-94
6.243870e-96
1.565816e-97
3.926697e-99
9.847231e-101
2.469454e-102
6.192808e-104
1.553011e-105
3.894585e-107
9.766702e-109
2.449259e-110
6.142165e-112
1.540311e-113
3.862736e-115
9.686833e-117
2.429230e-118
6.091937e-120
1.527714e-121
3.831148e-123
9.607617e-125
2.409364e-126
6.042119e-128
1.968187e+00
3.181304e-02
8.475972e-04
2.144582e-05
5.413662e-07
1.364271e-08
3.433712e-10
8.634217e-12
2.169612e-13
5.449022e-15
1.368010e-16
3.433498e-18
8.615736e-20
2.161621e-21
5.422703e-23
1.360235e-24
3.411803e-26
8.557220e-28
2.146178e-29
5.382536e-31
1.349893e-32
3.385364e-34
8.489977e-36
2.129139e-37
5.339476e-39
1.339033e-40
3.358015e-42
8.421175e-44
2.111844e-45
5.296031e-47
1.328124e-48
3.330631e-50
8.352452e-52
2.094601e-53
5.252772e-55
1.317273e-56
3.303411e-58
8.284182e-60
2.077478e-61
5.209828e-63
1.306502e-64
3.276401e-66
8.216444e-68
2.060491e-69
5.167226e-71
1.295819e-72
3.249609e-74
8.149254e-76
2.043641e-77
5.124971e-79
1.285222e-80
3.223035e-82
8.082612e-84
2.026929e-85
5.083061e-87
1.274712e-88
3.196678e-90
8.016515e-92
2.010353e-93
5.041493e-95
1.264288e-96
3.170536e-98
7.950959e-100
1.993913e-101
5.000265e-103
1.253949e-104
3.144609e-106
7.885938e-108
1.977608e-109
4.959375e-111
1.243694e-112
3.118893e-114
7.821449e-116
1.961435e-117
4.918818e-119
1.233524e-120
3.093388e-122
7.757488e-124
1.945395e-125
4.878594e-127
1.974205e+00
2.579533e-02
5.101498e-04
1.023549e-05
2.088331e-07
4.341956e-09
9.214202e-11
1.997482e-12
4.423283e-14
9.996475e-16
2.301842e-17
5.388922e-19
1.279665e-20
3.074878e-22
7.459990e-24
1.823822e-25
4.485854e-27
1.108511e-28
2.749138e-30
6.836677e-32
1.703719e-33
4.252399e-35
1.062636e-36
2.657799e-38
6.651960e-40
1.665690e-41
4.172549e-43
1.045515e-44
2.620291e-46
6.568056e-48
1.646549e-49
4.128102e-51
1.035033e-52
2.595250e-54
6.507586e-56
1.631820e-57
4.091978e-59
1.026127e-60
2.573199e-62
6.452820e-64
1.618186e-65
4.057974e-67
1.017634e-68
2.551967e-70
6.399696e-72
1.604886e-73
4.024665e-75
1.009289e-76
2.531054e-78
6.347280e-80
1.591747e-81
3.991724e-83
1.001030e-84
2.510346e-86
6.295356e-88
1.578727e-89
3.959074e-91
9.928425e-93
2.489815e-94
6.243870e-96
1.565816e-97
3.926697e-99
9.847231e-101
2.469454e-102
6.192809e-104
1.553011e-105
3.894585e-107
9.766703e-109
2.449259e-110
6.142165e-112
1.540311e-113
3.862736e-115
9.686833e-117
2.429230e-118
6.091937e-120
1.527714e-121
3.831148e-123
9.607617e-125
2.409364e-126
6.042119e-128
1.968187e+00
3.181304e-02
8.475972e-04
2.144582e-05
5.413662e-07
1.364271e-08
3.433712e-10
8.634217e-12
2.169612e-13
5.449022e-15
1.368010e-16
3.433498e-18
8.615736e-20
2.161621e-21
5.422703e-23
1.360235e-24
3.411803e-26
8.557220e-28
2.146178e-29
5.382536e-31
1.349893e-32
3.385364e-34
8.489977e-36
2.129139e-37
5.339476e-39
1.339033e-40
3.358015e-42
8.421175e-44
2.111844e-45
5.296031e-47
1.328124e-48
3.330631e-50
8.352452e-52
2.094601e-53
5.252772e-55
1.317273e-56
3.303411e-58
8.284182e-60
2.077478e-61
5.209828e-63
1.306502e-64
3.276401e-66
8.216444e-68
2.060491e-69
5.167226e-71
1.295819e-72
3.249609e-74
8.149254e-76
2.043641e-77
5.124971e-79
1.285222e-80
3.223035e-82
8.082612e-84
2.026929e-85
5.083061e-87
1.274712e-88
3.196678e-90
8.016515e-92
2.010353e-93
5.041493e-95
1.264288e-96
3.170536e-98
7.950959e-100
1.993913e-101
5.000265e-103
1.253949e-104
3.144609e-106
7.885938e-108
1.977608e-109
4.959375e-111
1.243694e-112
3.118893e-114
7.821449e-116
1.961435e-117
4.918818e-119
1.233524e-120
3.093388e-122
7.757488e-124
1.945395e-125
4.878594e-127
1.974205e+00
2.579533e-02
5.101498e-04
1.023549e-05
2.088331e-07
4.341956e-09
9.214202e-11
1.997482e-12
4.423283e-14
9.996475e-16
2.301842e-17
5.388922e-19
1.279665e-20
3.074878e-22
7.459990e-24
1.823822e-25
4.485854e-27
1.108511e-28
2.749138e-30
6.836677e-32
1.703719e-33
4.252399e-35
1.062636e-36
2.657799e-38
6.651960e-40
1.665690e-41
4.172549e-43
1.045515e-44
2.620291e-46
6.568056e-48
1.646549e-49
4.128102e-51
1.035033e-52
2.595250e-54
6.507586e-56
1.631820e-57
4.091978e-59
1.026127e-60
2.573199e-62
6.452820e-64
1.618186e-65
4.057974e-67
1.017634e-68
2.551967e-70
6.399696e-72
1.604886e-73
4.024665e-75
1.009289e-76
2.531054e-78
6.347280e-80
1.591747e-81
3.991724e-83
1.001030e-84
2.510346e-86
6.295356e-88
1.578727e-89
3.959074e-91
9.928425e-93
2.489815e-94
6.243870e-96
1.565816e-97
3.926697e-99
9.847231e-101
2.469454e-102
6.192809e-104
1.553011e-105
3.894585e-107
9.766703e-109
2.449259e-110
6.142165e-112
1.540311e-113
3.862736e-115
9.686833e-117
2.429230e-118
6.091937e-120
1.527714e-121
3.831148e-123
9.607618e-125
2.409364e-126
6.042119e-128
1.968187e+00
3.181304e-02
8.475972e-04
2.144582e-05
5.413662e-07
1.364271e-08
3.433712e-10
8.634217e-12
2.169612e-13
5.449022e-15
1.368010e-16
3.433498e-18
8.615736e-20
2.161621e-21
5.422703e-23
1.360235e-24
3.411803e-26
8.557220e-28
2.146178e-29
5.382536e-31
1.349893e-32
3.385364e-34
8.489977e-36
2.129139e-37
5.339476e-39
1.339033e-40
3.358015e-42
8.421175e-44
2.111844e-45
5.296031e-47
1.328124e-48
3.330631e-50
8.352452e-52
2.094601e-53
5.252772e-55
1.317273e-56
3.303411e-58
8.284182e-60
2.077478e-61
5.209828e-63
1.306502e-64
3.276401e-66
8.216444e-68
2.060491e-69
5.167226e-71
1.295819e-72
3.249609e-74
8.149254e-76
2.043641e-77
5.124971e-79
1.285222e-80
3.223035e-82
8.082612e-84
2.026929e-85
5.083061e-87
1.274712e-88
3.196678e-90
8.016515e-92
2.010353e-93
5.041493e-95
1.264288e-96
3.170536e-98
7.950959e-100
1.993913e-101
5.000265e-103
1.253949e-104
3.144609e-106
7.885938e-108
1.977608e-109
4.959375e-111
1.243694e-112
3.118893e-114
7.821449e-116
1.961435e-117
4.918818e-119
1.233524e-120
3.093388e-122
7.757488e-124
1.945395e-125
4.878594e-127
1.974205e+00
2.579533e-02
5.101498e-04
1.023549e-05
2.088331e-07
4.341956e-09
9.214202e-11
1.997482e-12
4.423283e-14
9.996475e-16
2.301842e-17
5.388922e-19
1.279665e-20
3.074878e-22
7.459990e-24
1.823822e-25
4.485854e-27
1.108511e-28
2.749138e-30
6.836677e-32
1.703719e-33
4.252399e-35
1.062636e-36
2.657799e-38
6.651960e-40
1.665690e-41
4.172549e-43
1.045515e-44
2.620291e-46
6.568056e-48
1.646549e-49
4.128102e-51
1.035033e-52
2.595250e-54
6.507586e-56
1.631820e-57
4.091978e-59
1.026127e-60
2.573199e-62
6.452820e-64
1.618186e-65
4.057974e-67
1.017634e-68
2.551967e-70
6.399696e-72
1.604886e-73
4.024665e-75
1.009289e-76
2.531054e-78
6.347280e-80
1.591747e-81
3.991724e-83
1.001030e-84
2.510346e-86
6.295356e-88
1.578727e-89
3.959074e-91
9.928425e-93
2.489815e-94
6.243870e-96
1.565816e-97
3.926697e-99
9.847231e-101
2.469454e-102
6.192809e-104
1.553011e-105
3.894585e-107
9.766703e-109
2.449259e-110
6.142165e-112
1.540311e-113
3.862736e-115
9.686833e-117
2.429230e-118
6.091937e-120
1.527714e-121
3.831148e-123
9.607618e-125
2.409364e-126
6.042119e-128
1.968187e+00
3.181304e-02
8.475972e-04
2.144582e-05
5.413662e-07
1.364271e-08
3.433712e-10
8.634217e-12
2.169612e-13
5.449022e-15
1.368010e-16
3.433498e-18
8.615736e-20
2.161621e-21
5.422703e-23
1.360235e-24
3.411803e-26
8.557220e-28
2.146178e-29
5.382536e-31
1.349893e-32
3.385364e-34
8.489977e-36
2.129139e-37
5.339476e-39
1.339033e-40
3.358015e-42
8.421175e-44
2.111844e-45
5.296031e-47
1.328124e-48
3.330631e-50
8.352452e-52
2.094601e-53
5.252772e-55
1.317273e-56
3.303411e-58
8.284182e-60
2.077478e-61
5.209828e-63
1.306502e-64
3.276401e-66
8.216444e-68
2.060491e-69
5.167226e-71
1.295819e-72
3.249609e-74
8.149254e-76
2.043641e-77
5.124971e-79
1.285222e-80
3.223035e-82
8.082612e-84
2.026929e-85
5.083061e-87
1.274712e-88
3.196678e-90
8.016515e-92
2.010353e-93
5.041493e-95
1.264288e-96
3.170536e-98
7.950959e-100
1.993913e-101
5.000265e-103
1.253949e-104
3.144609e-106
7.885938e-108
1.977608e-109
4.959375e-111
1.243694e-112
3.118893e-114
7.821449e-116
1.961435e-117
4.918818e-119
1.233524e-120
3.093388e-122
7.757488e-124
1.945395e-125
4.878594e-127
1.974205e+00
2.579533e-02
5.101498e-04
1.023549e-05
2.088331e-07
4.341956e-09
9.214202e-11
1.997482e-12