# vtk DataFile Version 3.0
MUSCL
ASCII
DATASET STRUCTURED_POINTS
DIMENSIONS 80 80 1
ORIGIN 0 0 0
SPACING 0.0125 0.0125 1
POINT_DATA 6400
SCALARS Temperature double 1
LOOKUP_TABLE default
0.000000e+00
-6.740000e-01
-1.939377e-01
-2.456447e-02
-3.496412e-04
2.503484e-06
-1.648629e-06
-6.809887e-07
-2.753920e-07
-1.234025e-07
-5.249178e-08
-2.055046e-08
-7.738679e-09
-3.014664e-09
-1.081708e-09
-4.236423e-10
-5.087432e-11
-6.487839e-13
7.191798e-14
6.760276e-17
4.095550e-16
1.563950e-16
7.154373e-17
4.911133e-17
5.176847e-17
2.985888e-16
5.382145e-16
4.760926e-16
2.610967e-16
1.258818e-16
1.677983e-17
8.657956e-20
-6.707995e-20
2.290514e-19
3.059784e-19
2.126331e-19
1.058864e-19
5.066028e-20
2.308627e-20
9.790134e-21
3.242429e-21
6.083463e-22
7.887047e-24
-4.901301e-25
-1.843300e-24
-9.859693e-25
-4.392847e-25
-1.919935e-25
-7.992286e-26
-3.239166e-26
-1.291758e-26
-5.041517e-27
-1.905419e-27
-6.917310e-28
-2.406474e-28
-8.051657e-29
-2.602792e-29
-8.109754e-30
-2.404348e-30
-6.701361e-31
-1.756125e-31
-4.303028e-32
-9.962445e-33
-1.817737e-33
-3.980237e-34
-9.411676e-35
-1.859134e-35
-1.836655e-36
1.211670e-36
7.717074e-37
2.327779e-37
5.810270e-38
1.448849e-38
3.369379e-39
4.431293e-40
2.927440e-41
1.554638e-42
7.654584e-42
1.165860e-41
9.285815e-42
1.326000e+00
6.740000e-01
1.939377e-01
2.456447e-02
3.496412e-04
-2.503484e-06
1.648629e-06
6.809887e-07
2.753920e-07
1.234025e-07
5.249178e-08
2.055046e-08
7.738679e-09
3.014664e-09
1.081708e-09
4.236423e-10
5.087432e-11
6.487839e-13
-7.191798e-14
-6.760276e-17
-4.095550e-16
-1.563950e-16
-7.154373e-17
-4.911133e-17
-5.176847e-17
-2.985888e-16
-5.382145e-16
-4.760926e-16
-2.610967e-16
-1.258818e-16
-1.677983e-17
-8.657956e-20
6.707995e-20
-2.290514e-19
-3.059784e-19
-2.126331e-19
-1.058864e-19
-5.066028e-20
-2.308627e-20
-9.790134e-21
-3.242429e-21
-6.083463e-22
-7.887047e-24
4.901301e-25
1.843300e-24
9.859693e-25
4.392847e-25
1.919935e-25
7.992286e-26
3.239166e-26
1.291758e-26
5.041517e-27
1.905419e-27
6.917310e-28
2.406474e-28
8.051657e-29
2.602792e-29
8.109754e-30
2.404348e-30
6.701361e-31
1.756125e-31
4.303028e-32
9.962445e-33
1.817737e-33
3.980237e-34
9.411676e-35
1.859134e-35
1.836655e-36
-1.211670e-36
-7.717074e-37
-2.327779e-37
-5.810270e-38
-1.448849e-38
-3.369379e-39
-4.431293e-40
-2.927440e-41
-1.554638e-42
-7.654584e-42
-1.165860e-41
-9.285815e-42
1.041969e+00
9.580312e-01
5.985834e-01
2.398268e-01
5.881846e-02
3.782036e-03
6.360203e-05
-3.573239e-05
-2.287732e-05
-1.073245e-05
-4.576754e-06
-1.875610e-06
-7.471893e-07
-1.755010e-07
1.516507e-09
5.561312e-10
4.739403e-10
1.833775e-10
2.037822e-12
-1.533752e-13
6.396350e-14
3.068426e-14
9.196486e-15
3.878530e-15
1.858085e-15
5.283717e-17
-2.539200e-16
2.108227e-16
-5.212795e-17
-1.262296e-16
-1.224248e-16
-4.109295e-17
4.293631e-19
-5.849045e-20
-1.183542e-19
4.979667e-20
3.163217e-19
2.802204e-19
-1.577945e-21
-1.180215e-20
-8.891451e-21
-4.942174e-21
-2.376105e-21
-8.989129e-22
-3.193624e-22
-1.225263e-22
-5.253479e-23
-2.321693e-23
-9.961872e-24
-4.074768e-24
-1.590614e-24
-5.949752e-25
-2.123657e-25
-7.316358e-26
-2.454996e-26
-8.069752e-27
-2.616764e-27
-8.621999e-28
-2.590723e-28
-6.690418e-29
-1.352122e-29
-1.788728e-30
1.719154e-32
1.948635e-32
3.964838e-33
-3.943421e-34
-2.721082e-34
4.566308e-35
4.392172e-36
2.092974e-36
2.283347e-37
-7.718406e-38
-1.967459e-38
-6.273131e-39
-2.202725e-39
-4.417268e-40
4.963914e-41
3.029195e-40
6.487103e-40
5.840829e-40
9.999850e-01
1.000015e+00
8.880298e-01
5.935037e-01
2.706729e-01
8.384626e-02
1.641030e-02
1.304772e-03
4.954291e-04
2.052156e-04
7.466028e-05
8.864781e-06
-6.694525e-07
-6.615884e-07
-3.559785e-07
-1.084055e-07
4.559059e-10
2.056725e-10
2.615286e-10
8.188625e-11
-5.380788e-13
-1.213731e-12
-6.193627e-13
-2.687563e-13
-1.233651e-13
-6.260747e-14
-2.143783e-14
-3.634974e-16
4.903909e-16
2.864473e-16
-1.516204e-16
-1.411611e-16
-8.797637e-17
-3.889356e-17
-1.583910e-17
-5.355666e-18
-1.129534e-18
1.431457e-19
3.864629e-19
2.714053e-19
1.181174e-19
4.693956e-20
1.652947e-20
4.967721e-21
1.164635e-21
1.450931e-22
-2.661337e-23
-1.125748e-23
-1.001554e-23
-5.316230e-25
3.346506e-25
-1.639772e-26
-1.112839e-25
-3.805126e-26
-9.385890e-27
-1.970036e-27
-2.605267e-27
-1.164172e-27
-4.784052e-28
-1.901790e-28
-6.841978e-29
-2.201798e-29
-6.093597e-30
-1.441279e-30
-3.155732e-31
-6.719374e-32
-1.349544e-32
-2.772247e-33
-7.786776e-34
-1.082802e-34
2.548110e-36
2.233440e-36
1.009403e-36
3.620868e-37
7.764513e-39
-7.282256e-40
-1.640064e-39
-1.323216e-38
-3.012480e-38
-2.882010e-38
9.998855e-01
1.000115e+00
9.863996e-01
8.523517e-01
5.808216e-01
2.960101e-01
9.888112e-02
2.194173e-02
6.494098e-04
1.704159e-04
1.361386e-04
9.129978e-05
4.134095e-05
6.839956e-06
-2.693218e-07
-2.975936e-07
-1.955681e-07
-4.609170e-08
-6.637576e-10
1.580810e-10
2.141567e-10
1.349471e-10
5.632713e-11
2.346446e-11
8.330278e-12
1.122364e-12
-6.789429e-14
-3.205112e-14
-7.214070e-15
3.364765e-16
2.201384e-15
2.157416e-15
1.199984e-15
6.311823e-16
3.347140e-16
1.175364e-16
-4.716007e-19
-2.928307e-19
2.365848e-19
1.762899e-19
1.694756e-20
1.404956e-20
1.168640e-20
1.852662e-21
-3.269571e-21
-3.089963e-21
-1.626153e-21
-8.017520e-22
-3.405173e-22
-1.304829e-22
-5.166824e-23
-2.007795e-23
-5.939264e-24
-4.216459e-25
4.160129e-26
3.151264e-26
1.705400e-26
6.971906e-27
2.552655e-27
8.888240e-28
3.182676e-28
1.109125e-28
4.064023e-29
1.392910e-29
4.448289e-30
1.316429e-30
3.923490e-31
1.348110e-31
2.216924e-32
7.208404e-34
-3.898859e-34
-2.482135e-34
-7.852940e-35
-6.148460e-37
4.779041e-37
4.894698e-37
5.519106e-37
8.067244e-37
1.454295e-36
1.361228e-36
9.999705e-01
1.000030e+00
9.999171e-01
9.649231e-01
8.294960e-01
5.645488e-01
3.366022e-01
1.267498e-01
3.477269e-02
2.583259e-03
-5.083230e-05
6.747313e-05
6.382945e-05
4.552437e-05
1.936113e-05
3.096861e-06
-1.815752e-07
-1.706700e-07
-9.823592e-08
-4.359028e-08
-1.932579e-08
-8.675084e-09
-3.172297e-09
-2.212292e-10
2.545694e-11
1.037904e-11
4.693366e-12
6.460351e-13
-1.854705e-14
-1.802891e-14
-3.300472e-15
-1.089304e-15
-5.139344e-16
-1.403887e-16
2.218154e-16
2.187993e-16
1.844283e-16
9.457518e-17
4.460923e-17
1.954810e-17
7.955405e-18
3.026927e-18
1.047565e-18
3.221747e-19
8.413195e-20
1.670617e-20
1.521849e-21
-6.175876e-22
-5.682184e-22
-3.206109e-22
-1.559840e-22
-7.285493e-23
-3.382238e-23
-1.563428e-23
-6.213935e-24
-2.516517e-24
-9.982268e-25
-3.563814e-25
-1.038530e-25
-2.664770e-26
-7.101733e-27
-2.667105e-27
-1.217674e-27
-5.150703e-28
-1.860865e-28
-6.556723e-29
-1.790672e-29
-7.791404e-31
1.805452e-31
8.432375e-32
4.938963e-32
1.254324e-32
3.949186e-34
-9.095264e-35
-8.020846e-35
-3.800527e-35
-2.721394e-35
-3.058384e-35
-3.984740e-35
-3.936673e-35
9.999956e-01
1.000004e+00
1.000036e+00
9.983917e-01
9.485039e-01
8.111555e-01
5.427508e-01
3.577127e-01
1.479357e-01
5.004034e-02
9.676014e-03
3.460461e-04
3.435565e-06
4.101325e-05
3.519660e-05
2.256214e-05
1.161157e-05
4.894272e-06
2.086010e-06
8.375078e-07
1.672719e-07
-8.024704e-09
-6.605196e-09
-4.421454e-09
-1.193741e-09
8.107367e-12
2.898441e-11
6.979688e-12
3.083019e-12
1.542757e-12
7.421884e-13
3.479047e-13
1.319827e-13
2.196128e-14
-7.471335e-16
4.273837e-17
1.541467e-16
-1.557732e-17
2.225999e-17
1.327049e-17
8.201454e-18
7.554604e-19
4.031318e-19
5.701336e-20
-1.228735e-19
-9.758324e-20
-1.676939e-20
-2.210317e-22
-2.533798e-22
-1.791013e-22
-5.156058e-23
-2.203557e-23
-1.290699e-23
-8.072538e-24
-5.253474e-24
-2.565119e-24
-1.526987e-24
-8.053432e-25
-4.005464e-25
-1.749457e-25
-6.608319e-26
-2.087341e-26
-5.463350e-27
-1.274287e-27
-3.265807e-28
-1.018524e-28
-4.474354e-29
-2.179025e-29
-1.068225e-29
-4.674859e-30
-4.364288e-31
1.946151e-32
2.563192e-32
1.327285e-32
6.254120e-33
2.909326e-33
1.305480e-33
5.268811e-34
1.226741e-34
2.118926e-35
9.999999e-01
1.000000e+00
1.000003e+00
1.000042e+00
9.921014e-01
9.348701e-01
7.949556e-01
5.168520e-01
3.729827e-01
1.555563e-01
5.837349e-02
1.589029e-02
2.127044e-03
7.596106e-05
2.980412e-05
2.217444e-05
1.180756e-05
5.032236e-06
2.156589e-06
1.169832e-06
8.582082e-07
3.738792e-07
5.549095e-08
-4.767227e-09
-4.123146e-09
-2.446713e-09
-1.106031e-09
-4.792494e-10
-2.082979e-10
-9.211583e-11
-3.263058e-11
-4.408256e-12
-1.980701e-14
1.501445e-13
8.709402e-14
3.759028e-14
1.609140e-14
6.834051e-15
2.888232e-15
1.212706e-15
5.319130e-16
2.216372e-16
9.438706e-17
2.365909e-17
1.882561e-20
-1.122862e-19
-1.355378e-19
-9.065622e-20
-4.480329e-20
-2.123475e-20
-9.418860e-21
-3.941373e-21
-1.582749e-21
-6.403928e-22
-2.100867e-22
-4.211167e-23
-1.017806e-24
-4.826142e-25
-2.201937e-25
-9.061702e-26
-5.158980e-27
7.370692e-27
7.003819e-27
1.800098e-27
4.276725e-28
4.947660e-29
2.213677e-29
3.313327e-29
1.600668e-29
-3.972920e-30
-4.206592e-30
-3.083659e-30
-1.470803e-30
-6.989335e-31
-3.224761e-31
-1.449381e-31
-6.362822e-32
-2.848602e-32
-8.119450e-33
-1.745507e-33
9.999997e-01
1.000000e+00
9.999996e-01
1.000034e+00
9.999816e-01
9.848071e-01
9.217612e-01
7.795076e-01
5.212917e-01
3.784593e-01
1.649278e-01
6.654344e-02
2.044883e-02
4.243080e-03
3.801349e-04
8.206245e-05
4.879553e-05
2.677003e-05
1.002290e-05
2.285614e-06
8.829017e-07
7.075767e-07
4.374407e-07
2.068694e-07
8.890720e-08
3.722454e-08
1.544110e-08
6.297914e-09
1.731110e-09
-6.986672e-11
-6.636622e-11
-4.302686e-11
-2.024901e-11
-8.546270e-12
-3.637989e-12
-1.550108e-12
-6.608756e-13
-2.821276e-13
-1.202954e-13
-5.253565e-14
-1.393067e-14
1.186017e-16
9.721427e-17
7.589110e-17
3.747488e-17
1.050841e-17
4.221979e-18
1.863050e-18
7.927766e-19
3.104031e-19
1.168780e-19
4.009158e-20
6.316094e-21
-4.842199e-22
-4.515841e-22
-2.572091e-22
-1.149005e-22
-4.583539e-23
-1.779115e-23
-5.757246e-24
-1.670629e-24
-5.174305e-25
-3.589853e-25
-1.636710e-25
-5.371661e-26
-1.822340e-26
-4.576903e-27
-4.080937e-28
3.035796e-29
2.311988e-29
2.070519e-29
1.103173e-29
5.261717e-30
2.406693e-30
1.106481e-30
5.103278e-31
9.369747e-32
-2.992198e-32
-2.449418e-32
-1.281094e-32
9.999998e-01
1.000000e+00
1.000000e+00
1.000012e+00
1.000014e+00
9.988828e-01
9.786383e-01
9.079805e-01
7.698693e-01
5.221992e-01
3.810182e-01
1.771095e-01
7.562904e-02
2.535638e-02
5.894393e-03
4.484397e-04
5.495158e-05
3.235775e-05
2.581404e-05
1.417532e-05
4.172300e-06
6.926227e-07
4.131838e-07
2.040713e-07
8.342328e-08
3.479736e-08
1.435142e-08
8.734256e-09
5.776417e-09
3.112897e-09
1.268208e-09
5.212820e-10
2.149864e-10
8.878761e-11
3.664067e-11
1.498892e-11
6.368768e-12
1.804248e-12
-4.350510e-14
-5.498424e-14
-4.680881e-14
-2.410447e-14
-4.414741e-15
8.673462e-17
5.885172e-17
2.893824e-17
4.633933e-18
1.870428e-18
4.914174e-19
1.198330e-19
8.140014e-20
6.065449e-20
3.977389e-20
1.943083e-20
6.703312e-21
1.551735e-21
9.933714e-23
-5.523678e-23
-2.813336e-23
-1.554967e-23
-8.340204e-24
-4.457308e-24
-1.356493e-24
1.739878e-26
-1.578913e-26
-2.045317e-26
-1.172508e-26
-5.377952e-27
-1.787132e-27
-4.273509e-28
-8.182014e-29
-3.580749e-29
-3.290126e-29
-1.476961e-29
-2.075049e-30
6.220467e-31
4.599301e-31
2.719085e-31
1.220644e-31
5.098986e-32
9.999999e-01
1.000000e+00
1.000000e+00
1.000001e+00
1.000013e+00
9.999949e-01
9.971862e-01
9.709766e-01
8.969247e-01
7.615508e-01
5.236161e-01
3.740617e-01
1.874244e-01
8.575279e-02
3.195544e-02
8.884666e-03
1.268048e-03
2.318917e-05
2.540218e-05
2.206397e-05
1.608921e-05
7.005139e-06
2.116329e-06
8.597499e-07
4.792787e-07
2.564731e-07
9.568166e-08
1.493618e-08
3.784915e-09
2.800254e-09
9.814783e-10
4.458541e-10
1.990704e-10
8.952132e-11
3.613174e-11
7.903288e-12
5.493287e-12
4.767677e-12
2.674315e-12
6.212508e-13
-4.261484e-14
-3.697281e-14
-2.681796e-14
-1.086327e-14
-1.252809e-15
1.383992e-16
5.463834e-17
2.689555e-17
1.204953e-17
5.786475e-18
1.744634e-18
9.190484e-20
3.636836e-20
1.867967e-20
1.245558e-20
7.164227e-21
3.449993e-21
1.427330e-21
4.646894e-22
1.099178e-22
5.758885e-24
-4.961638e-24
-1.751250e-24
-4.927081e-26
2.661976e-25
2.085217e-25
1.018048e-25
5.320607e-26
2.896564e-26
1.570349e-26
8.440562e-27
3.536484e-27
3.972979e-28
-5.366338e-29
-2.269443e-29
-1.115593e-29
-3.795577e-30
-8.527283e-31
1.106718e-31
7.261922e-32
1.000000e+00
1.000000e+00
1.000000e+00
1.000000e+00
1.000006e+00
1.000008e+00
9.999615e-01
9.941992e-01
9.638451e-01
8.861027e-01
7.588402e-01
5.118773e-01
3.892919e-01
1.920643e-01
9.236667e-02
3.718397e-02
1.169692e-02
2.326634e-03
6.777516e-05
1.176060e-05
1.735363e-05
1.348000e-05
6.677113e-06
1.725446e-06
4.640290e-07
2.655632e-07
2.222548e-07
1.426276e-07
7.137631e-08
3.286639e-08
1.541049e-08
7.119708e-09
3.285225e-09
1.547871e-09
7.168492e-10
2.433103e-10
3.163366e-11
3.288250e-12
3.436370e-12
2.623006e-12
1.295915e-12
2.754861e-13
-3.028614e-14
-2.197552e-14
-1.428646e-14
-6.871171e-15
-3.001647e-15
-7.823014e-16
2.018748e-18
6.247984e-18
5.124972e-18
2.944999e-18
1.132037e-18
2.513739e-19
5.785045e-21
5.668347e-21
3.199286e-21
1.904457e-21
9.230510e-22
4.048863e-22
1.542859e-22
5.408667e-23
1.442509e-23
2.897110e-25
1.567883e-25
1.233551e-25
1.622560e-26
2.177963e-26
1.401386e-26
1.460345e-26
6.581238e-27
5.685597e-27
4.631306e-27
2.398091e-27
1.177217e-27
4.525564e-28
6.056318e-29
-3.045883e-30
-1.433761e-30
-7.673472e-31
1.000000e+00
1.000000e+00
1.000000e+00
1.000000e+00
1.000002e+00
1.000006e+00
1.000008e+00
9.997575e-01
9.914631e-01
9.548434e-01
8.817404e-01
7.453997e-01
5.159051e-01
3.937953e-01
1.986401e-01
9.891454e-02
4.200398e-02
1.456462e-02
3.644787e-03
3.546271e-04
2.264858e-05
1.691276e-05
1.376308e-05
9.798345e-06
3.724325e-06
6.534234e-07
1.662920e-07
1.189736e-07
5.329461e-08
3.066481e-08
1.448994e-08
6.664462e-09
3.328092e-09
1.451861e-09
6.741066e-10
5.667591e-10
3.286883e-10
8.716504e-11
3.427771e-12
1.590210e-12
1.777082e-12
1.353144e-12
6.795204e-13
2.937726e-13
9.428201e-14
1.600814e-15
-3.401728e-15
-2.817383e-15
-1.554477e-15
-6.872931e-16
-2.546176e-16
-4.292902e-17
2.692357e-18
1.274233e-18
6.866517e-19
2.709111e-19
1.097033e-20
1.235406e-21
-1.345436e-22
-9.586839e-23
5.766773e-23
5.276585e-23
3.747742e-23
2.197858e-23
1.076512e-23
5.582302e-24
2.929115e-24
1.534926e-24
7.976341e-25
4.358064e-25
1.476212e-25
6.931389e-27
4.506419e-27
4.804768e-29
1.092959e-27
8.257102e-28
5.730996e-28
2.953187e-28
1.075596e-28
4.037313e-29
1.000000e+00
1.000000e+00
1.000000e+00
1.000000e+00
1.000000e+00
1.000002e+00
1.000007e+00
9.999126e-01
9.998776e-01
9.863450e-01
9.508352e-01
8.715333e-01
7.384449e-01
5.161571e-01
3.972172e-01
2.052217e-01
1.052313e-01
4.642351e-02
1.748005e-02
5.026384e-03
6.012681e-04
2.335182e-05
7.954317e-06
9.476888e-06
8.303131e-06
5.213979e-06
2.553230e-06
1.210935e-06
6.125062e-07
2.921932e-07
1.386878e-07
6.620308e-08
3.346632e-08
1.319214e-08
3.012363e-09
5.292842e-10
4.265422e-10
3.375867e-10
1.582504e-10
3.667621e-11
2.107735e-12
9.695673e-13
4.912509e-13
2.304140e-13
2.172046e-13
1.309704e-13
5.880347e-14
2.517944e-14
6.627854e-15
-6.204472e-16
-4.953825e-16
-2.991399e-16
-1.568577e-16
-4.558577e-17
1.445740e-19
3.496267e-19
3.400534e-19
1.769038e-19
7.605980e-20
1.418275e-20
-5.356275e-23
-4.970736e-23
6.035789e-24
-7.263783e-24
-7.635614e-24
-6.851499e-24
-4.270122e-24
-1.537426e-24
-1.347781e-25
4.225132e-25
3.796645e-25
2.406108e-25
1.236000e-25
6.236793e-26
1.547485e-26
5.784956e-28
1.501991e-28
2.320032e-28
2.105493e-28
1.033021e-28
1.000000e+00
1.000000e+00
1.000000e+00
1.000000e+00
1.000000e+00
1.000000e+00
1.000004e+00
9.999628e-01
9.999709e-01
9.977117e-01
9.838793e-01
9.447019e-01
8.634735e-01
7.326338e-01
5.157721e-01
4.002301e-01
2.116184e-01
1.117495e-01
5.059376e-02
2.042207e-02
7.052807e-03
1.759655e-03
2.204276e-04
1.612773e-05
7.506458e-06
7.805656e-07
1.072929e-06
7.987039e-07
5.299132e-07
1.263013e-07
1.307672e-07
6.025501e-08
3.279399e-08
2.652128e-08
1.612939e-08
5.606986e-09
5.842519e-10
3.299014e-10
2.602869e-10
1.774473e-10
9.040721e-11
4.076581e-11
1.488558e-11
2.184547e-12
1.782851e-13
1.157288e-13
5.572593e-14
2.592345e-14
1.971029e-14
1.115602e-14
3.950431e-15
6.003086e-16
-1.608071e-16
-1.302009e-16
-7.463819e-17
-3.343548e-17
-9.622294e-18
1.341914e-19
1.075087e-19
8.598329e-20
4.315248e-20
1.912778e-20
8.367476e-21
3.642586e-21
1.600834e-21
6.805235e-22
2.600504e-22
5.980053e-23
3.449687e-25
-2.465719e-25
-4.641374e-27
1.458292e-25
5.563083e-26
5.640257e-26
5.131947e-26
3.306455e-26
1.507682e-26
3.313901e-27
1.365459e-28
8.307597e-29
1.000000e+00
1.000000e+00
1.000000e+00
1.000000e+00
1.000000e+00
1.000000e+00
1.000002e+00
9.999844e-01
9.999916e-01
9.999904e-01
9.962445e-01
9.802096e-01
9.386509e-01
8.558827e-01
7.276374e-01
5.149920e-01
4.022899e-01
2.167492e-01
1.190120e-01
5.372690e-02
2.141092e-02
7.350794e-03
2.232886e-03
7.191443e-04
3.136729e-04
1.417640e-04
6.379437e-05
2.835753e-05
1.257401e-05
5.748953e-06
2.648351e-06
8.397232e-07
1.112541e-07
2.840467e-08
2.097970e-08
1.624511e-08
8.810947e-09
2.297338e-09
2.993228e-10
1.004096e-10
7.096100e-11
3.851971e-11
3.095837e-11
1.944699e-11
8.947406e-12
4.120790e-12
1.353177e-12
8.913699e-14
1.959801e-14
9.549615e-15
6.910331e-15
4.247425e-15
2.032537e-15
6.498824e-16
4.519141e-17
-3.622038e-17
-2.895555e-17
-1.647714e-17
-6.973766e-18
-2.936025e-18
-1.237290e-18
-5.233464e-19
-2.251390e-19
-7.862009e-20
-1.406565e-20
1.084221e-21
5.428881e-22
3.224191e-22
1.707930e-22
7.246494e-23
3.043930e-23
1.308441e-23
4.700880e-24
1.003818e-24
1.453498e-25
3.559053e-26
2.131600e-26
1.563702e-26
8.170705e-27
3.789883e-27
1.000000e+00
1.000000e+00
1.000000e+00
1.000000e+00
1.000000e+00
1.000000e+00
1.000001e+00
9.999934e-01
9.999933e-01
9.999938e-01
9.996721e-01
9.947558e-01
9.763834e-01
9.334445e-01
8.475832e-01
7.249701e-01
5.158141e-01
4.044444e-01
2.192293e-01
1.311700e-01
6.152659e-02
2.464256e-02
8.081123e-03
1.882843e-03
3.087618e-04
1.463020e-04
5.786724e-05
2.827381e-05
1.274623e-05
4.971521e-06
2.656421e-06
2.146874e-06
1.188034e-06
3.019671e-07
2.710439e-08
1.584090e-08
1.248131e-08
9.107842e-09
4.757201e-09
2.290266e-09
9.202556e-10
1.752955e-10
2.628543e-11
1.741239e-11
8.514222e-12
4.224318e-12
3.334057e-12
2.053488e-12
7.967113e-13
1.493216e-13
4.792982e-15
3.573794e-15
1.831419e-15
1.317452e-15
7.678846e-16
3.401029e-16
1.183356e-16
3.518213e-17
8.641355e-18
1.143301e-18
-4.980796e-19
-5.000188e-19
-2.302245e-19
-1.656954e-19
-1.029215e-19
-5.165572e-20
-2.253692e-20
-9.652813e-21
-4.070452e-21
-1.606983e-21
-4.659456e-22
-1.178965e-22
-1.620831e-23
-2.150288e-25
5.346726e-25
2.051959e-27
3.836793e-27
1.093455e-26
6.950661e-27
3.426947e-27
1.000000e+00
1.000000e+00
1.000000e+00
1.000000e+00
1.000000e+00
1.000000e+00
1.000000e+00
9.999984e-01
9.999946e-01
9.999950e-01
9.999916e-01
9.992529e-01
9.929589e-01
9.723762e-01
9.301755e-01
8.318676e-01
7.228210e-01
5.194666e-01
4.070901e-01
2.222795e-01
1.368263e-01
6.859495e-02
3.015982e-02
1.136213e-02
3.461161e-03
9.756274e-04
4.634425e-04
2.241888e-04
1.165284e-04
4.128908e-05
8.010717e-06
2.205814e-06
1.763329e-06
1.312021e-06
5.905656e-07
1.239508e-07
1.129394e-08
7.850212e-09
4.778965e-09
2.298245e-09
1.741493e-09
1.132226e-09
5.610857e-10
2.648731e-10
9.081793e-11
1.232726e-11
2.861652e-12
1.913513e-12
1.452492e-12
9.453102e-13
4.695789e-13
1.700451e-13
2.267967e-14
-2.700894e-16
3.598435e-16
3.309327e-16
-1.524567e-16
-2.470523e-17
-1.174861e-17
-6.931472e-18
-3.476760e-18
-2.162705e-18
-9.786308e-19
-1.863467e-19
-1.052175e-19
-4.264120e-20
-2.306064e-20
-7.916392e-21
-3.892657e-21
-1.586149e-21
-9.985908e-22
-1.401055e-22
-1.748348e-23
5.269634e-24
5.996369e-24
3.520318e-24
1.451096e-24
6.188159e-25
2.342372e-25
3.237835e-26
1.000000e+00
1.000000e+00
1.000000e+00
1.000000e+00
1.000000e+00
1.000000e+00
1.000000e+00
1.000000e+00
9.999973e-01
9.999958e-01
9.999965e-01
9.999379e-01
9.989826e-01
9.901890e-01
9.711523e-01
9.209788e-01
8.231357e-01
7.195381e-01
5.218194e-01
4.078261e-01
2.281064e-01
1.366133e-01
6.950570e-02
3.125613e-02
1.174366e-02
3.385230e-03
5.617427e-04
2.216541e-04
1.201888e-04
9.778194e-05
5.560069e-05
1.648750e-05
1.609917e-06
1.228732e-06
1.010898e-06
6.773305e-07
3.353626e-07
1.586376e-07
6.375766e-08
1.174703e-08
1.753498e-09
6.066823e-10
5.514136e-10
2.704438e-10
2.186049e-10
1.313895e-10
6.225583e-11
1.956103e-11
1.658384e-12
8.001394e-13
4.797306e-13
3.568515e-13
2.240323e-13
1.027545e-13
4.466065e-14
1.936837e-14
8.464845e-15
3.618458e-15
1.527895e-15
6.710160e-16
2.042323e-16
7.298996e-18
-3.211840e-18
-1.626530e-18
-8.648539e-19
-4.124416e-19
-1.905455e-19
-8.411528e-20
-2.572417e-20
-7.148243e-21
-2.190828e-21
-1.286820e-21
-8.424272e-22
-4.306233e-22
-1.989082e-22
-8.771488e-23
-3.435924e-23
-4.742250e-24
3.239052e-25
2.189240e-25
1.000000e+00
1.000000e+00
1.000000e+00
1.000000e+00
1.000000e+00
1.000000e+00
1.000000e+00
1.000000e+00
9.999995e-01
9.999972e-01
9.999971e-01
9.999723e-01
9.999995e-01
9.975199e-01
9.896678e-01
9.671735e-01
9.134860e-01
8.160337e-01
7.166260e-01
5.214949e-01
4.107669e-01
2.332038e-01
1.463550e-01
7.663409e-02
3.645161e-02
1.522424e-02
5.251807e-03
1.316067e-03
2.932881e-04
1.022077e-04
8.175743e-05
6.091815e-05
2.909711e-05
7.846797e-06
1.088938e-06
6.933570e-07
2.855580e-07
1.496777e-07
1.217438e-07
7.880577e-08
3.879505e-08
1.823921e-08
6.172819e-09
8.967403e-10
1.315346e-10
1.166628e-10
6.546366e-11
5.286239e-11
3.241974e-11
1.224767e-11
2.112732e-12
2.220039e-13
2.116406e-13
8.167506e-14
4.189368e-14
7.783100e-15
3.516576e-15
2.163738e-15
1.523893e-15
6.585066e-16
5.288308e-16
3.018509e-16
1.323496e-16
5.527873e-17
2.410529e-17
8.535390e-18
3.861886e-19
-8.479708e-20
-7.363282e-20
-3.053723e-20
-5.525829e-21
-9.316283e-22
-6.493449e-22
-3.544955e-22
-1.737279e-22
-7.945912e-23
-4.186707e-23
-2.627469e-23
-1.429232e-23
-6.308049e-24
1.000000e+00
1.000000e+00
1.000000e+00
1.000000e+00
1.000000e+00
1.000000e+00
1.000000e+00
1.000000e+00
1.000000e+00
9.999985e-01
9.999986e-01
9.999868e-01
9.999903e-01
9.996210e-01
9.969538e-01
9.879745e-01
9.629885e-01
9.062306e-01
8.112411e-01
7.119583e-01
5.210660e-01
4.143801e-01
2.385874e-01
1.469421e-01
7.675705e-02
3.696921e-02
1.604141e-02
5.932629e-03
1.813509e-03
4.382557e-04
8.950043e-05
6.167251e-05
4.602590e-05
3.021907e-05
1.464822e-05
5.743782e-06
2.436285e-06
7.580112e-07
1.357010e-07
7.257292e-08
3.678445e-08
1.851268e-08
1.448400e-08
8.839710e-09
4.315497e-09
1.437830e-09
1.614369e-10
5.520693e-11
3.144835e-11
2.521332e-11
1.621860e-11
7.848500e-12
3.577422e-12
1.635033e-12
7.413252e-13
3.431888e-13
1.561348e-13
7.301076e-14
2.379352e-14
2.535174e-15
5.007891e-16
2.485791e-16
-7.476561e-18
2.939587e-17
2.190976e-17
1.786115e-17
1.226625e-17
3.654450e-18
-5.033120e-20
-6.139000e-20
-4.490032e-20
-1.870112e-20
-7.653485e-21
-3.244143e-21
-1.391921e-21
-4.847769e-22
-9.922113e-23
-2.728480e-23
-1.131867e-23
-6.302499e-24
1.000000e+00
1.000000e+00
1.000000e+00
1.000000e+00
1.000000e+00
1.000000e+00
1.000000e+00
1.000000e+00
1.000000e+00
9.999994e-01
9.999994e-01
9.999937e-01
9.999923e-01
9.999837e-01
9.993647e-01
9.962299e-01
9.860119e-01
9.586265e-01
8.993124e-01
8.088175e-01
7.067040e-01
5.196721e-01
4.154642e-01
2.429647e-01
1.591378e-01
8.341541e-02
4.029064e-02
1.766360e-02
6.900576e-03
2.335879e-03
6.610796e-04
1.611282e-04
5.694146e-05
3.503139e-05
2.199285e-05
1.011344e-05
3.861893e-06
2.576612e-06
1.441538e-06
7.011112e-07
2.919352e-07
7.231769e-08
1.337096e-08
8.124234e-09
4.461974e-09
3.527569e-09
2.152837e-09
8.514119e-10
1.395525e-10
2.136153e-11
1.233343e-11
7.356965e-12
3.654036e-12
1.059835e-12
3.996135e-13
2.685724e-13
1.155880e-13
7.344578e-14
5.775110e-14
3.448858e-14
1.542289e-14
6.912355e-15
3.198451e-15
1.203263e-15
1.486414e-16
1.124516e-17
1.203178e-17
1.011607e-17
6.039818e-18
2.722563e-18
1.210618e-18
5.633909e-19
1.722980e-19
-3.042404e-21
-2.036385e-21
-1.272799e-21
-7.097379e-22
-3.174447e-22
-1.446126e-22
-6.212143e-23
1.000000e+00
1.000000e+00
1.000000e+00
1.000000e+00
1.000000e+00
1.000000e+00
1.000000e+00
1.000000e+00
1.000000e+00
9.999998e-01
9.999998e-01
9.999981e-01
9.999940e-01
9.999939e-01
9.999373e-01
9.991268e-01
9.953466e-01
9.838071e-01
9.547132e-01
8.885119e-01
8.115375e-01
7.049495e-01
5.185183e-01
4.165532e-01
2.445037e-01
1.649409e-01
8.853094e-02
4.342800e-02
1.933526e-02
7.749169e-03
2.740845e-03
8.289513e-04
2.254789e-04
7.496827e-05
4.114880e-05
2.693372e-05
1.242590e-05
2.850921e-06
1.487085e-06
6.629326e-07
5.546198e-07
3.628653e-07
1.893399e-07
6.826739e-08
1.070807e-08
2.462368e-09
1.873574e-09
1.621580e-09
1.039779e-09
4.992123e-10
2.321041e-10
1.079698e-10
5.136638e-11
2.374752e-11
1.104322e-11
5.251712e-12
1.748808e-12
2.183052e-13
5.472854e-14
3.050572e-14
1.403054e-14
6.718164e-15
3.018364e-15
2.333060e-15
1.611872e-15
5.097879e-16
2.983820e-17
5.855570e-18
1.209674e-18
9.386296e-19
7.213484e-19
5.341286e-19
4.568479e-19
2.819160e-19
1.260756e-19
5.648322e-20
2.530134e-20
1.130303e-20
5.033475e-21
2.046766e-21
1.000000e+00
1.000000e+00
1.000000e+00
1.000000e+00
1.000000e+00
1.000000e+00
1.000000e+00
1.000000e+00
1.000000e+00
9.999999e-01
9.999998e-01
9.999998e-01
9.999967e-01
9.999955e-01
9.999973e-01
9.998398e-01
9.989996e-01
9.937663e-01
9.846174e-01
9.402829e-01
8.937238e-01
7.989348e-01
7.032351e-01
5.214482e-01
4.171023e-01
2.478347e-01
1.705062e-01
9.367852e-02
4.707824e-02
2.144645e-02
8.837571e-03
3.238134e-03
1.025061e-03
2.772258e-04
7.598211e-05
3.871855e-05
2.961964e-05
1.958817e-05
9.574655e-06
2.974842e-06
5.493845e-07
3.622807e-07
1.896624e-07
1.567374e-07
1.005615e-07
4.179386e-08
9.154042e-09
1.345410e-09
9.562256e-10
3.751367e-10
1.543419e-10
8.907292e-11
4.967337e-11
1.514695e-11
1.089574e-11
5.224793e-12
4.238523e-12
2.577651e-12
1.190759e-12
5.354355e-13
2.493904e-13
9.702728e-14
1.443544e-14
2.603905e-15
1.628729e-15
1.274260e-15
7.691174e-16
3.514363e-16
1.588774e-16
7.471211e-17
2.455993e-17
1.815046e-18
-1.702244e-19
2.624488e-19
1.077560e-19
3.306789e-20
9.587263e-21
8.981231e-21
2.848133e-21
1.300675e-21
1.000000e+00
1.000000e+00
1.000000e+00
1.000000e+00
1.000000e+00
1.000000e+00
1.000000e+00
1.000000e+00
1.000000e+00
1.000000e+00
9.999999e-01
9.999999e-01
9.999991e-01
9.999968e-01
9.999980e-01
9.999292e-01
9.999386e-01
9.970048e-01
9.968436e-01
9.755740e-01
9.436774e-01
8.871967e-01
7.906769e-01
7.010174e-01
5.218977e-01
4.173850e-01
2.503176e-01
1.743995e-01
9.764313e-02
5.032807e-02
2.349894e-02
9.974738e-03
3.828163e-03
1.300988e-03
3.765540e-04
8.697153e-05
3.032464e-05
1.978196e-05
1.465168e-05
9.865475e-06
5.010378e-06
1.835906e-06
5.301448e-07
1.427380e-07
9.340253e-08
7.742592e-08
5.005788e-08
2.500322e-08
1.157402e-08
5.546845e-09
2.625631e-09
1.225177e-09
5.749492e-10
2.882357e-10
1.004104e-10
1.608726e-11
3.988138e-12
1.545492e-12
7.427654e-13
5.438345e-13
2.515924e-13
1.898622e-13
1.328729e-13
4.526414e-14
5.467918e-15
7.106674e-16
7.173392e-16
3.198447e-16
1.621790e-16
7.941781e-17
6.210299e-17
3.750398e-17
1.734835e-17
7.770003e-18
3.581328e-18
1.629132e-18
7.372393e-19
3.382395e-19
1.561417e-19
7.191000e-20
1.000000e+00
1.000000e+00
1.000000e+00
1.000000e+00
1.000000e+00
1.000000e+00
1.000000e+00
1.000000e+00
1.000000e+00
1.000000e+00
1.000000e+00
9.999999e-01
9.999999e-01
9.999984e-01
9.999985e-01
9.999674e-01
9.999754e-01
9.986231e-01
9.986909e-01
9.924230e-01
9.748795e-01
9.412122e-01
8.823309e-01
7.836707e-01
6.994401e-01
5.244392e-01
4.206159e-01
2.546153e-01
1.790439e-01
1.014613e-01
5.357284e-02
2.550948e-02
1.102371e-02
4.352056e-03
1.575688e-03
5.195051e-04
1.527486e-04
4.611828e-05
1.926183e-05
1.201420e-05
7.947213e-06
4.257128e-06
2.316953e-06
1.163249e-06
4.308078e-07
8.464009e-08
4.616101e-08
2.325707e-08
9.627017e-09
5.051853e-09
2.296503e-09
1.034911e-09
5.622177e-10
2.848275e-10
2.295625e-10
1.424540e-10
6.789281e-11
3.170988e-11
1.520930e-11
6.237141e-12
1.026046e-12
1.951827e-13
1.219595e-13
1.027407e-13
6.243768e-14
2.917045e-14
1.305412e-14
6.164370e-15
2.147935e-15
2.000467e-16
2.044787e-17
3.340544e-17
1.699754e-17
5.295708e-18
2.158388e-18
3.931538e-19
2.642573e-19
2.558439e-19
8.119479e-20
7.191592e-20
1.000000e+00
1.000000e+00
1.000000e+00
1.000000e+00
1.000000e+00
1.000000e+00
1.000000e+00
1.000000e+00
1.000000e+00
1.000000e+00
1.000000e+00
1.000000e+00
1.000000e+00
9.999992e-01
9.999992e-01
9.999846e-01
9.999860e-01
9.993767e-01
9.993811e-01
9.979309e-01
9.904542e-01
9.730131e-01
9.372592e-01
8.797156e-01
7.715314e-01
6.918208e-01
5.232844e-01
4.222086e-01
2.586000e-01
1.840421e-01
1.048781e-01
5.704780e-02
2.786578e-02
1.222836e-02
4.845591e-03
1.751520e-03
5.815192e-04
1.844099e-04
6.135863e-05
2.428190e-05
1.292019e-05
7.950292e-06
3.746491e-06
1.744051e-06
1.087388e-06
6.928359e-07
3.413238e-07
1.728942e-07
8.708456e-08
4.343293e-08
2.130442e-08
1.065375e-08
4.314659e-09
9.636322e-10
1.911875e-10
1.136533e-10
6.516257e-11
3.029017e-11
1.552589e-11
1.144814e-11
8.028437e-12
3.056450e-12
5.271851e-13
6.586719e-14
3.099267e-14
1.959730e-14
1.101519e-14
6.204595e-15
5.065550e-15
3.143706e-15
1.477899e-15
6.724253e-16
3.069438e-16
1.422064e-16
6.552210e-17
3.078953e-17
1.444421e-17
6.750025e-18
2.247749e-18
2.994846e-19
1.000000e+00
1.000000e+00
1.000000e+00
1.000000e+00
1.000000e+00
1.000000e+00
1.000000e+00
1.000000e+00
1.000000e+00
1.000000e+00
1.000000e+00
1.000000e+00
1.000000e+00
9.999996e-01
9.999997e-01
9.999932e-01
9.999940e-01
9.997665e-01
9.995631e-01
9.994423e-01
9.969294e-01
9.891985e-01
9.704141e-01
9.337820e-01
8.782868e-01
7.662027e-01
6.869269e-01
5.219945e-01
4.233104e-01
2.619934e-01
1.899829e-01
1.068168e-01
5.995932e-02
3.038937e-02
1.381559e-02
5.625887e-03
2.054527e-03
6.813543e-04
2.150873e-04
7.203437e-05
2.759033e-05
1.397195e-05
1.013978e-05
4.698500e-06
1.662509e-06
6.717623e-07
3.352894e-07
1.761873e-07
8.678591e-08
4.486625e-08
1.931444e-08
1.062260e-08
8.704655e-09
5.572836e-09
2.843488e-09
1.333976e-09
6.573112e-10
2.806058e-10
6.205084e-11
9.906201e-12
7.549004e-12
6.207302e-12
3.888761e-12
1.870544e-12
8.590624e-13
4.189052e-13
1.422817e-13
1.749923e-14
2.229835e-15
2.549339e-15
1.016490e-15
5.534637e-16
2.900588e-16
1.460444e-16
3.864566e-17
2.370097e-17
9.738915e-18
6.599904e-18
5.568301e-18
2.907016e-18
1.000000e+00
1.000000e+00
1.000000e+00
1.000000e+00
1.000000e+00
1.000000e+00
1.000000e+00
1.000000e+00
1.000000e+00
1.000000e+00
1.000000e+00
1.000000e+00
1.000000e+00
9.999998e-01