# vtk DataFile Version 3.0
MUSCL
ASCII
DATASET STRUCTURED_POINTS
DIMENSIONS 80 80 1
ORIGIN 0 0 0
SPACING 0.0125 0.0125 1
POINT_DATA 6400
SCALARS Temperature double 1
LOOKUP_TABLE default
0.000000e+00
-6.739994e-01
-1.939479e-01
-2.456632e-02
-3.503142e-04
1.058651e-05
-2.453480e-06
-8.068252e-07
-1.371159e-07
-5.989715e-08
-2.909269e-08
-1.450285e-08
-7.248591e-09
-3.547813e-09
-1.396375e-09
-5.819930e-10
-8.830493e-11
-3.079960e-12
-4.392445e-13
-4.083758e-14
-8.611612e-15
-8.866069e-15
3.557809e-14
2.904048e-14
1.286244e-14
5.128590e-15
1.867399e-15
6.365670e-16
2.098786e-16
6.757905e-17
2.190787e-17
7.109133e-18
1.836134e-18
8.785904e-19
6.898843e-19
3.421515e-19
1.428556e-19
5.386140e-20
1.843567e-20
6.249637e-21
1.778565e-21
4.365148e-22
8.668338e-23
1.217775e-23
2.008817e-25
-2.330835e-26
-1.011120e-26
-4.405221e-27
-2.370246e-27
-1.311654e-27
-7.270858e-28
-3.504674e-28
-1.440190e-29
5.296548e-31
1.134231e-30
7.128977e-31
3.771655e-31
1.636405e-31
7.154173e-32
3.501826e-32
1.844227e-32
9.876056e-33
5.407513e-33
2.390844e-33
4.564592e-34
2.409327e-36
-3.593211e-36
-2.444156e-36
-6.774258e-37
4.520230e-37
2.751003e-37
5.223713e-38
5.770768e-40
-3.952142e-41
9.771504e-41
1.505981e-41
2.968712e-41
2.480085e-41
1.121649e-41
4.919425e-42
1.326001e+00
6.739994e-01
1.939479e-01
2.456632e-02
3.503142e-04
-1.058651e-05
2.453480e-06
8.068252e-07
1.371159e-07
5.989715e-08
2.909269e-08
1.450285e-08
7.248591e-09
3.547813e-09
1.396375e-09
5.819930e-10
8.830493e-11
3.079960e-12
4.392445e-13
4.083758e-14
8.611612e-15
8.866069e-15
-3.557809e-14
-2.904048e-14
-1.286244e-14
-5.128590e-15
-1.867399e-15
-6.365670e-16
-2.098786e-16
-6.757905e-17
-2.190787e-17
-7.109133e-18
-1.836134e-18
-8.785904e-19
-6.898843e-19
-3.421515e-19
-1.428556e-19
-5.386140e-20
-1.843567e-20
-6.249637e-21
-1.778565e-21
-4.365148e-22
-8.668338e-23
-1.217775e-23
-2.008817e-25
2.330835e-26
1.011120e-26
4.405221e-27
2.370246e-27
1.311654e-27
7.270858e-28
3.504674e-28
1.440190e-29
-5.296548e-31
-1.134231e-30
-7.128977e-31
-3.771655e-31
-1.636405e-31
-7.154173e-32
-3.501826e-32
-1.844227e-32
-9.876056e-33
-5.407513e-33
-2.390844e-33
-4.564592e-34
-2.409327e-36
3.593211e-36
2.444156e-36
6.774258e-37
-4.520230e-37
-2.751003e-37
-5.223713e-38
-5.770768e-40
3.952142e-41
-9.771504e-41
-1.505981e-41
-2.968712e-41
-2.480085e-41
-1.121649e-41
-4.919425e-42
1.041911e+00
9.580886e-01
5.985600e-01
2.397456e-01
5.879290e-02
3.803789e-03
-1.550483e-04
-4.413733e-05
-2.202115e-05
-1.079787e-05
-4.852332e-06
-2.062364e-06
-8.480811e-07
-2.123025e-07
-2.098923e-09
8.809507e-10
6.848358e-10
1.708543e-10
-3.506637e-12
-2.591905e-12
-6.927775e-13
-2.626233e-13
-1.268216e-14
2.349914e-13
2.149845e-13
1.051673e-13
3.904513e-14
8.785453e-15
-5.656949e-17
-8.486028e-17
-5.115893e-17
-2.256724e-17
-1.093343e-17
-4.592906e-18
-7.065141e-19
-2.465347e-19
-1.235453e-19
-4.440515e-20
-1.305928e-20
-7.185210e-21
-3.306274e-21
-1.305150e-21
-4.618957e-22
-1.448604e-22
-4.059950e-23
-8.925922e-24
-2.070762e-24
-6.412412e-25
-2.981375e-25
-1.654481e-25
-5.167463e-26
-1.650850e-28
7.072956e-28
4.620953e-28
2.241100e-28
1.105237e-28
5.513165e-29
2.697562e-29
1.287710e-29
6.036515e-30
2.881599e-30
1.387023e-30
4.150246e-31
1.235960e-33
-1.381808e-33
-1.261022e-33
-5.499181e-34
-1.964889e-34
-5.973216e-35
-1.623398e-35
-3.841280e-36
-8.938162e-37
-2.634281e-37
-3.767772e-38
-7.517188e-41
1.687142e-39
2.254282e-39
1.744742e-39
9.262938e-40
4.420077e-40
9.992283e-01
1.000772e+00
8.861320e-01
5.933301e-01
2.707050e-01
8.387562e-02
1.618440e-02
1.318126e-03
5.015784e-04
2.074893e-04
7.442584e-05
8.999986e-06
-9.268549e-07
-7.818017e-07
-4.471033e-07
-1.609391e-07
-7.915983e-09
1.371064e-09
4.640535e-10
9.236642e-11
4.205730e-13
-1.903146e-12
-3.480239e-13
1.354488e-13
2.129829e-13
1.064295e-13
6.821213e-14
4.270381e-14
2.223323e-14
7.679386e-15
2.438936e-15
6.461300e-16
1.307062e-16
1.730245e-17
-8.133294e-18
-9.324530e-18
-4.782938e-18
-1.454851e-18
-1.648271e-19
7.652408e-21
6.602307e-23
-1.498595e-22
8.086160e-23
7.393957e-23
3.665101e-23
1.833720e-23
8.112662e-24
2.999957e-24
8.430407e-25
-7.333570e-26
-1.614048e-25
-1.401862e-25
-7.480005e-26
-3.987595e-26
-2.031547e-26
-9.911654e-27
-4.665885e-27
-2.131523e-27
-9.556726e-28
-4.426573e-28
-1.964761e-28
-3.814641e-29
1.146974e-30
6.004531e-31
2.666795e-31
6.893984e-32
1.336561e-32
1.613668e-33
1.524037e-34
2.186727e-35
9.233909e-36
1.056516e-36
-2.553265e-37
-1.377352e-37
-9.687769e-38
-1.214993e-37
-1.178850e-37
-7.971350e-38
-4.946074e-38
-2.939787e-38
9.999095e-01
1.000090e+00
9.863445e-01
8.523755e-01
5.808973e-01
2.960585e-01
9.887221e-02
2.194834e-02
6.739242e-04
1.589322e-04
1.358012e-04
8.926113e-05
4.010533e-05
7.644518e-06
-2.801357e-07
-3.382037e-07
-2.318898e-07
-7.166967e-08
6.524853e-10
4.228252e-10
3.843976e-10
1.798525e-10
7.410190e-11
3.012292e-11
1.166282e-11
2.568420e-12
1.018839e-13
5.265505e-14
2.874828e-14
1.289290e-14
5.224234e-15
2.021744e-15
7.127720e-16
1.870989e-16
1.656016e-17
-7.153432e-18
-4.435896e-18
-4.053532e-18
-2.561715e-18
-1.081671e-18
-4.044144e-19
-1.448322e-19
-5.059205e-20
-1.765343e-20
-6.325845e-21
-2.370872e-21
-9.507824e-22
-2.720129e-22
-1.395487e-24
1.503334e-25
7.242668e-25
3.804257e-25
1.257278e-25
3.309496e-26
5.269288e-27
1.411381e-27
2.081087e-27
2.730718e-27
2.245766e-27
8.250063e-28
-1.946786e-29
-1.212640e-28
-1.000036e-28
-2.493210e-29
-1.196937e-31
9.556267e-32
8.768030e-33
1.397471e-33
-1.388059e-33
-1.106790e-33
-1.449589e-34
1.258800e-35
7.377216e-36
5.207841e-36
6.083471e-36
5.902361e-36
4.475935e-36
3.180109e-36
2.061447e-36
1.361719e-36
9.999737e-01
1.000026e+00
9.997414e-01
9.651554e-01
8.296743e-01
5.645450e-01
3.365781e-01
1.267864e-01
3.483078e-02
2.624188e-03
-1.053155e-04
6.549257e-05
6.113714e-05
4.391095e-05
1.819532e-05
2.852409e-06
-3.219552e-07
-2.064206e-07
-1.260149e-07
-5.591581e-08
-2.404063e-08
-1.046332e-08
-3.789944e-09
-3.627687e-10
1.526076e-11
9.811887e-12
4.016518e-12
7.771002e-14
1.632584e-16
-1.555102e-14
-9.519284e-15
-4.197044e-15
-2.056426e-15
-1.042904e-15
-5.224091e-16
-2.110874e-16
-3.308078e-17
-2.209531e-18
-2.346214e-18
-7.036183e-19
-3.906017e-19
-1.078970e-19
-2.284053e-20
-3.281460e-21
-1.306989e-21
-1.432779e-21
-1.135446e-21
-7.814020e-22
-4.531775e-22
-1.991099e-22
-9.024679e-23
-4.139911e-23
-1.859301e-23
-8.046808e-24
-3.335296e-24
-1.315810e-24
-4.871806e-25
-1.698902e-25
-4.529111e-26
-4.070459e-27
-1.514033e-28
4.391121e-28
-1.279711e-29
-6.618082e-29
-4.597585e-29
-2.309190e-30
7.445275e-31
2.916074e-31
1.413492e-31
9.955360e-33
-2.230176e-33
-9.430804e-34
-5.676047e-34
-3.003394e-34
-2.100689e-34
-1.663504e-34
-1.270415e-34
-1.095620e-34
-3.421262e-35
1.941119e-36
9.999969e-01
1.000003e+00
1.000028e+00
9.984267e-01
9.484789e-01
8.110434e-01
5.426723e-01
3.577213e-01
1.479764e-01
5.009485e-02
9.774871e-03
3.724292e-04
6.281423e-05
4.159751e-05
3.548355e-05
2.317275e-05
1.154830e-05
4.849473e-06
1.988939e-06
7.963750e-07
1.717263e-07
-9.889669e-09
-7.365574e-09
-4.790292e-09
-1.102041e-09
-3.095109e-12
9.322836e-12
7.735247e-12
3.726765e-12
1.618248e-12
6.802325e-13
2.969375e-13
1.270843e-13
5.349215e-14
8.277882e-15
-2.903342e-16
-2.253243e-16
-1.316044e-16
-6.111063e-17
-2.642222e-17
-1.081411e-17
-4.553947e-18
-1.934130e-18
-8.306375e-19
-3.510781e-19
-8.451905e-20
-1.202617e-21
-4.595869e-22
-2.106799e-22
-1.231144e-22
1.910940e-22
-2.721929e-23
-1.373812e-23
2.361078e-24
9.527574e-24
8.467486e-24
3.391866e-24
-9.328923e-26
-8.789915e-26
-4.455956e-26
-1.235409e-26
-1.832237e-27
1.828625e-28
1.532752e-28
-4.445012e-29
-4.723614e-29
-3.954555e-29
-1.470754e-29
-1.140759e-31
1.259823e-31
1.166310e-31
6.285147e-32
3.253709e-32
1.635876e-32
7.984843e-33
3.263333e-33
9.047989e-34
-9.225410e-35
-1.144036e-34
-1.110577e-34
9.999999e-01
1.000000e+00
1.000009e+00
1.000073e+00
9.921436e-01
9.350029e-01
7.950184e-01
5.168806e-01
3.730080e-01
1.556134e-01
5.840159e-02
1.585673e-02
2.156887e-03
3.187488e-05
2.933755e-05
2.307094e-05
1.147158e-05
4.868601e-06
1.985433e-06
1.030006e-06
7.583703e-07
3.481846e-07
4.892832e-08
-3.504435e-09
-4.251888e-09
-2.596210e-09
-1.138354e-09
-4.930872e-10
-2.133349e-10
-9.353072e-11
-3.669991e-11
-8.233267e-12
1.881653e-13
8.794484e-14
6.207165e-14
2.938632e-14
1.309285e-14
5.863760e-15
2.619735e-15
1.160105e-15
5.138881e-16
1.975799e-16
5.566404e-17
-9.487422e-19
-4.228738e-19
-3.347899e-19
-1.719863e-19
-6.843236e-20
-2.878813e-20
-1.272797e-20
-5.917930e-21
-2.550669e-21
-1.065081e-21
-4.125697e-22
-1.237881e-22
-2.542191e-23
-1.268432e-24
4.123135e-24
3.082903e-24
8.706663e-25
1.048231e-25
7.243146e-27
9.499649e-28
6.361570e-28
7.804904e-28
6.606175e-28
1.624716e-28
-9.614388e-30
-1.860333e-29
-1.379287e-29
-6.903308e-30
-3.463119e-30
-1.695507e-30
-7.644252e-31
-1.798045e-31
6.607905e-33
3.019264e-33
1.652184e-33
4.818090e-34
1.367503e-34
9.999993e-01
1.000001e+00
1.000001e+00
1.000033e+00
1.000039e+00
9.849618e-01
9.217197e-01
7.795054e-01
5.213120e-01
3.784946e-01
1.649687e-01
6.656384e-02
2.046626e-02
4.196460e-03
3.770049e-04
8.031610e-05
4.637575e-05
2.649270e-05
9.835738e-06
2.349265e-06
7.996976e-07
6.331317e-07
3.757109e-07
1.788569e-07
7.403311e-08
3.226592e-08
1.394424e-08
5.894777e-09
1.677251e-09
-7.984889e-11
-6.080544e-11
-3.957663e-11
-2.083506e-11
-9.008629e-12
-3.844648e-12
-1.644005e-12
-7.059461e-13
-3.031761e-13
-1.326516e-13
-4.815300e-14
-7.068432e-15
2.521379e-16
2.130273e-16
1.135860e-16
2.536577e-17
-1.447642e-20
-1.686469e-19
-6.903168e-20
-2.295782e-20
-1.227512e-20
-3.809253e-21
-1.859275e-21
-7.607110e-22
-4.131858e-22
-2.191103e-22
-5.768671e-23
-1.037312e-23
3.259302e-24
2.505494e-24
4.482669e-25
7.026761e-26
-1.898611e-26
-9.261099e-27
-4.051608e-27
-6.030615e-28
4.524644e-28
1.575532e-28
4.691494e-28
4.217914e-28
2.298833e-28
1.063343e-28
2.898979e-29
-1.837089e-30
-1.192956e-30
-8.632291e-31
-5.193012e-31
-2.600029e-31
-1.211690e-31
-5.539555e-32
-2.408820e-32
9.999995e-01
1.000000e+00
1.000000e+00
1.000011e+00
1.000021e+00
9.988534e-01
9.786143e-01
9.079597e-01
7.698381e-01
5.221731e-01
3.810299e-01
1.771181e-01
7.566131e-02
2.537038e-02
5.880282e-03
4.337410e-04
5.443199e-05
3.089288e-05
2.431854e-05
1.357398e-05
4.209180e-06
7.184858e-07
3.688286e-07
1.838708e-07
7.418173e-08
3.032517e-08
1.376086e-08
7.917349e-09
5.268509e-09
2.912467e-09
1.196614e-09
4.939089e-10
2.014793e-10
8.149852e-11
3.265306e-11
1.293924e-11
5.316706e-12
1.423098e-12
-1.069839e-13
-9.502382e-14
-6.092317e-14
-2.573470e-14
-3.079746e-15
2.125398e-16
1.101721e-16
4.539603e-17
-2.554848e-19
-4.229305e-19
-3.128600e-19
-1.425530e-19
-6.924059e-20
-3.096955e-20
-1.076106e-20
-1.131821e-21
2.076749e-23
-5.871646e-24
7.402373e-23
7.294128e-23
3.613907e-23
1.647121e-23
6.465359e-24
2.525085e-24
1.019010e-24
4.397526e-25
2.021535e-25
6.396791e-26
4.955650e-27
4.273373e-29
1.949625e-28
1.105464e-28
1.640385e-28
1.300953e-28
7.737225e-29
4.036830e-29
2.025764e-29
9.761307e-30
4.536900e-30
2.039783e-30
8.887655e-31
3.783830e-31
9.999998e-01
1.000000e+00
1.000000e+00
1.000002e+00
1.000014e+00
1.000022e+00
9.972079e-01
9.709457e-01
8.969020e-01
7.615300e-01
5.236382e-01
3.740400e-01
1.874395e-01
8.576217e-02
3.193511e-02
8.865823e-03
1.240718e-03
4.421537e-05
2.428149e-05
2.079494e-05
1.521897e-05
6.718154e-06
1.957795e-06
8.301681e-07
3.998198e-07
2.078913e-07
8.193536e-08
1.352799e-08
4.539616e-09
2.872296e-09
7.986553e-10
4.400145e-10
1.386257e-10
6.143016e-11
3.151226e-11
5.403752e-12
5.121732e-12
4.079582e-12
2.224220e-12
4.972693e-13
-6.173085e-14
-4.790629e-14
-3.304756e-14
-1.095574e-14
-4.531831e-16
5.499927e-17
7.563588e-17
3.856714e-17
1.672054e-17
6.749748e-18
1.508699e-18
-3.784280e-21
-2.475673e-20
-1.802814e-20
-8.170053e-21
-3.035057e-21
-9.556841e-22
-2.415974e-22
-1.941716e-23
1.219250e-23
5.561268e-24
2.601896e-24
6.874198e-25
3.246061e-25
1.860201e-25
1.476050e-25
8.616956e-26
4.159291e-26
2.328071e-26
6.681293e-27
2.001110e-28
1.134285e-28
6.748899e-29
2.240912e-29
-5.992278e-30
-3.926729e-30
3.981569e-31
2.914191e-31
1.944519e-31
2.140743e-31
9.999999e-01
1.000000e+00
1.000000e+00
1.000000e+00
1.000007e+00
1.000008e+00
9.999757e-01
9.941412e-01
9.638274e-01
8.860890e-01
7.588615e-01
5.118679e-01
3.892899e-01
1.920658e-01
9.235591e-02
3.716433e-02
1.166685e-02
2.323517e-03
6.481032e-05
1.760295e-05
1.560559e-05
1.281446e-05
6.439811e-06
1.380786e-06
4.167719e-07
2.122321e-07
1.811899e-07
1.230232e-07
6.321141e-08
3.038775e-08
1.461293e-08
6.722338e-09
3.082867e-09
1.382135e-09
6.564420e-10
2.205238e-10
2.666038e-11
3.217717e-12
2.848252e-12
2.133944e-12
1.053200e-12
2.251742e-13
-2.805560e-14
-2.634123e-14
-1.564840e-14
-6.856577e-15
-3.034797e-15
-7.777858e-16
1.353282e-17
9.722503e-18
7.275078e-18
3.744882e-18
1.295739e-18
3.718540e-19
2.544629e-20
-2.341383e-21
-1.862529e-21
-3.289350e-22
1.288711e-24
7.329929e-23
6.801435e-23
3.602567e-23
1.790765e-23
6.535784e-24
9.073805e-25
5.355733e-26
5.045622e-26
5.107148e-27
2.092464e-26
2.022046e-26
1.517439e-26
8.257919e-27
4.543757e-27
2.429567e-27
1.252893e-27
6.341073e-28
3.111834e-28
1.471422e-28
6.955398e-29
2.738966e-29
1.000000e+00
1.000000e+00
1.000000e+00
1.000000e+00
1.000002e+00
1.000006e+00
1.000006e+00
9.997281e-01
9.914327e-01
9.548174e-01
8.817572e-01
7.454249e-01
5.159073e-01
3.937835e-01
1.986257e-01
9.888828e-02
4.197027e-02
1.454441e-02
3.638905e-03
3.441276e-04
2.067381e-05
1.511527e-05
1.274488e-05
9.186578e-06
3.545924e-06
5.313025e-07
1.908152e-07
8.189386e-08
4.951992e-08
2.760237e-08
1.162665e-08
4.718737e-09
2.891244e-09
1.431957e-09
6.703501e-10
5.288420e-10
2.909396e-10
7.637818e-11
3.954185e-12
1.757860e-12
1.520685e-12
1.039011e-12
5.453366e-13
2.270661e-13
7.056029e-14
-2.390536e-16
-2.990211e-15
-2.755163e-15
-1.569558e-15
-7.148676e-16
-2.285014e-16
-2.436193e-17
3.591943e-18
1.617457e-18
8.331451e-19
2.645995e-19
5.927856e-21
-3.043811e-21
-1.140444e-21
-3.212478e-22
-5.497106e-23
1.540388e-23
1.836382e-23
1.668914e-23
1.073505e-23
5.020345e-24
2.418754e-24
1.243841e-24
4.114942e-25
2.511708e-26
1.542960e-27
-6.209812e-28
3.693670e-28
2.030466e-28
2.413641e-28
5.791852e-28
2.899670e-28
1.115983e-28
6.858086e-29
2.364455e-29
1.000000e+00
1.000000e+00
1.000000e+00
1.000000e+00
1.000000e+00
1.000002e+00
1.000006e+00
9.999045e-01
9.998554e-01
9.863457e-01
9.508573e-01
8.715672e-01
7.384633e-01
5.161467e-01
3.972041e-01
2.051946e-01
1.051959e-01
4.639852e-02
1.746459e-02
5.020955e-03
5.958930e-04
1.257976e-05
7.178747e-06
8.776712e-06
7.814104e-06
4.994824e-06
2.413419e-06
1.167570e-06
5.679329e-07
2.774993e-07
1.368274e-07
6.606070e-08
3.203264e-08
1.175734e-08
2.190997e-09
5.590811e-10
4.226294e-10
3.095513e-10
1.439326e-10
3.222705e-11
5.444672e-13
8.927485e-13
4.486104e-13
1.901972e-13
1.614228e-13
9.677720e-14
4.261323e-14
1.744591e-14
4.266640e-15
-6.032028e-16
-5.823111e-16
-3.549825e-16
-1.769638e-16
-5.268651e-17
-6.207715e-19
6.505380e-19
4.424094e-19
1.801161e-19
7.667426e-20
1.753456e-20
-3.079863e-22
-2.100734e-22
-2.320024e-23
-5.585705e-24
5.236399e-24
4.014241e-24
1.545702e-24
7.911766e-25
7.432640e-25
6.908446e-25
4.108701e-25
2.274049e-25
1.238681e-25
6.564306e-26
3.508864e-26
1.645725e-26
6.296213e-27
1.311538e-27
4.327615e-29
3.623491e-28
1.000000e+00
1.000000e+00
1.000000e+00
1.000000e+00
1.000000e+00
1.000000e+00
1.000004e+00
9.999614e-01
1.000037e+00
9.976629e-01
9.838641e-01
9.447312e-01
8.635046e-01
7.326439e-01
5.157674e-01
4.002185e-01
2.115898e-01
1.117200e-01
5.057023e-02
2.040951e-02
7.042495e-03
1.705912e-03
2.166824e-04
2.941842e-06
3.273706e-06
3.528273e-06
2.222599e-06
8.950407e-07
4.638572e-07
1.094481e-07
7.939450e-08
5.970490e-08
3.139966e-08
2.604117e-08
1.519079e-08
4.764248e-09
5.294192e-10
2.578061e-10
2.293602e-10
1.551635e-10
7.671543e-11
3.456132e-11
1.283524e-11
1.877275e-12
7.600897e-14
7.747347e-14
2.367605e-14
1.571750e-14
1.304653e-14
7.360693e-15
2.711223e-15
3.494458e-16
-1.837097e-16
-1.503714e-16
-8.516851e-17
-3.783058e-17
-1.051222e-17
-8.421118e-20
9.960280e-20
7.566913e-20
4.133395e-20
1.935838e-20
8.586810e-21
3.817692e-21
1.685860e-21
7.682880e-22
2.901085e-22
2.732950e-23
-3.983223e-24
-7.034508e-25
1.592301e-25
2.151518e-25
6.748770e-27
3.553432e-26
3.417493e-26
2.697801e-26
1.823919e-26
1.118101e-26
6.636669e-27
1.365899e-27
1.000000e+00
1.000000e+00
1.000000e+00
1.000000e+00
1.000000e+00
1.000000e+00
1.000002e+00
9.999844e-01
9.999935e-01
9.999315e-01
9.962270e-01
9.802402e-01
9.386863e-01
8.559001e-01
7.276401e-01
5.149871e-01
4.022775e-01
2.167200e-01
1.189839e-01
5.370495e-02
2.139888e-02
7.341675e-03
2.223555e-03
7.198960e-04
3.130266e-04
1.384166e-04
6.141754e-05
2.757885e-05
1.243354e-05
5.571070e-06
2.659059e-06
8.657811e-07
1.134747e-07
2.035323e-08
1.968343e-08
1.560411e-08
8.126712e-09
2.143514e-09
2.662489e-10
1.491761e-10
6.398794e-11
3.470511e-11
2.655771e-11
1.690542e-11
7.836575e-12
3.611444e-12
1.208584e-12
7.970041e-14
-3.835302e-15
4.237154e-15
4.034753e-15
2.674173e-15
1.368784e-15
4.362268e-16
-2.633730e-17
-3.901436e-17
-3.246128e-17
-1.760068e-17
-7.333345e-18
-3.035670e-18
-1.262661e-18
-5.288468e-19
-2.217111e-19
-9.747963e-20
-2.880925e-20
-5.214406e-22
5.002955e-22
3.333290e-22
1.558646e-22
6.834083e-23
3.126895e-23
1.454233e-23
6.516155e-24
2.012485e-24
7.304383e-26
1.367047e-26
6.207878e-27
4.310398e-27
5.797576e-27
6.162075e-27
1.000000e+00
1.000000e+00
1.000000e+00
1.000000e+00
1.000000e+00
1.000000e+00
1.000001e+00
9.999936e-01
9.999924e-01
9.999956e-01
9.996631e-01
9.947685e-01
9.764044e-01
9.334561e-01
8.475862e-01
7.249718e-01
5.158205e-01
4.044486e-01
2.192170e-01
1.311606e-01
6.152241e-02
2.463894e-02
8.071837e-03
1.890268e-03
3.328574e-04
1.399709e-04
5.129312e-05
2.302685e-05
9.287199e-06
5.378455e-06
2.672024e-06
2.195624e-06
1.209386e-06
3.072918e-07
1.993087e-08
1.461933e-08
1.152100e-08
8.487982e-09
4.379964e-09
2.040415e-09
7.790871e-10
1.533900e-10
1.836447e-11
1.366391e-11
8.007224e-12
3.684827e-12
2.923481e-12
1.775333e-12
7.152819e-13
1.235683e-13
3.795397e-15
2.237578e-15
7.398113e-16
9.362739e-16
5.835205e-16
2.449424e-16
8.800802e-17
2.671253e-17
6.492622e-18
5.644797e-19
-7.312096e-19
-5.164124e-19
-2.209751e-19
-1.018536e-19
-7.733814e-20
-4.287663e-20
-1.758996e-20
-7.090474e-21
-2.970091e-21
-1.310300e-21
-4.778170e-22
-5.505738e-23
9.361910e-24
6.235842e-24
3.943178e-24
1.602476e-24
4.265132e-25
-4.221943e-27
5.168584e-28
3.646017e-27
1.000000e+00
1.000000e+00
1.000000e+00
1.000000e+00
1.000000e+00
1.000000e+00
1.000000e+00
9.999985e-01
9.999943e-01
9.999954e-01
9.999950e-01
9.992560e-01
9.929721e-01
9.723891e-01
9.301860e-01
8.318818e-01
7.228453e-01
5.194936e-01
4.071130e-01
2.222932e-01
1.368374e-01
6.859776e-02
3.015216e-02
1.136431e-02
3.520047e-03
9.741797e-04
4.633787e-04
2.269268e-04
1.128023e-04
3.928941e-05
7.898377e-06
2.333147e-06
1.825250e-06
1.349712e-06
6.344970e-07
1.327999e-07
8.343783e-09
4.149210e-09
2.600912e-09
2.046052e-09
1.557802e-09
1.000243e-09
4.888828e-10
2.340269e-10
8.395683e-11
1.135236e-11
1.468926e-12
1.522407e-12
1.152152e-12
8.196740e-13
3.940322e-13
1.435837e-13
1.829303e-14
4.553796e-17
9.974765e-17
1.865026e-16
-6.510991e-17
-1.506455e-17
-1.561844e-17
-6.863854e-18
-3.809228e-18
-2.964824e-18
-1.344949e-18
-2.586688e-19
-6.856831e-20
-4.376995e-20
-1.261048e-20
-5.744173e-21
-2.676037e-21
-1.048668e-21
-8.802376e-22
-5.975016e-22
-2.686282e-22
-5.141520e-23
3.309470e-24
3.040185e-24
2.032695e-24
1.149496e-24
5.445018e-25
1.509104e-25
1.000000e+00
1.000000e+00
1.000000e+00
1.000000e+00
1.000000e+00
1.000000e+00
1.000000e+00
1.000000e+00
9.999972e-01
9.999958e-01
9.999958e-01
9.999425e-01
9.989896e-01
9.901903e-01
9.711576e-01
9.209908e-01
8.231563e-01
7.195654e-01
5.218504e-01
4.078564e-01
2.281301e-01
1.366225e-01
6.949970e-02
3.125039e-02
1.174039e-02
3.377019e-03
5.545175e-04
2.246066e-04
1.185994e-04
9.629743e-05
5.367033e-05
1.532398e-05
1.623970e-06
1.111302e-06
1.036344e-06
6.888490e-07
3.445054e-07
1.612240e-07
6.168250e-08
1.090153e-08
1.243120e-09
7.222503e-10
4.980783e-10
2.293976e-10
1.904595e-10
1.172691e-10
5.717537e-11
1.826428e-11
1.297186e-12
4.487666e-13
3.829459e-13
3.075514e-13
1.913701e-13
8.763378e-14
3.908582e-14
1.734242e-14
7.806783e-15
3.342425e-15
1.429160e-15
6.347808e-16
1.935034e-16
4.916297e-18
-2.139764e-18
-2.159825e-18
-1.126018e-18
-5.148742e-19
-2.214413e-19
-9.667599e-20
-4.177078e-20
-1.244148e-20
-8.467063e-22
-5.813026e-22
-4.195649e-22
-2.972016e-22
-1.588054e-22
-6.976509e-23
-2.387175e-23
-1.949463e-24
6.085899e-25
4.571010e-25
1.000000e+00
1.000000e+00
1.000000e+00
1.000000e+00
1.000000e+00
1.000000e+00
1.000000e+00
1.000000e+00
9.999994e-01
9.999972e-01
9.999977e-01
9.999739e-01
9.999688e-01
9.975109e-01
9.896831e-01
9.671793e-01
9.134914e-01
8.160417e-01
7.166392e-01
5.215151e-01
4.107897e-01
2.332238e-01
1.463498e-01
7.662216e-02
3.643587e-02
1.520432e-02
5.232710e-03
1.328913e-03
2.933715e-04
9.659804e-05
8.272486e-05
6.097539e-05
2.855316e-05
7.811745e-06
1.054249e-06
5.026351e-07
2.632435e-07
1.630296e-07
1.224232e-07
7.803911e-08
3.678265e-08
1.735153e-08
6.202480e-09
8.124560e-10
1.435975e-10
1.123337e-10
6.277102e-11
4.718382e-11
2.925297e-11
1.147986e-11
2.050400e-12
2.081591e-13
6.891096e-14
4.939673e-14
3.288866e-14
1.586994e-14
7.504545e-15
3.304654e-15
9.329244e-16
6.117528e-16
4.960102e-16
2.864764e-16
1.214824e-16
5.175117e-17
2.203378e-17
9.843750e-18
2.985215e-18
4.311062e-20
-5.004410e-20
-3.937685e-20
-2.141817e-20
-6.333124e-21
-4.657831e-22
-2.936234e-22
-1.010070e-22
-6.304116e-23
-5.005230e-23
-3.027841e-23
-1.375638e-23
-4.910702e-24
1.000000e+00
1.000000e+00
1.000000e+00
1.000000e+00
1.000000e+00
1.000000e+00
1.000000e+00
1.000000e+00
1.000000e+00
9.999985e-01
9.999989e-01
9.999868e-01
9.999873e-01
9.996339e-01
9.969606e-01
9.879686e-01
9.629768e-01
9.062184e-01
8.112360e-01
7.119571e-01
5.210721e-01
4.143888e-01
2.385776e-01
1.469196e-01
7.672783e-02
3.693517e-02
1.601115e-02
5.920398e-03
1.803359e-03
4.305016e-04
8.833788e-05
5.939640e-05
4.658947e-05
3.111003e-05
1.514868e-05
5.861451e-06
2.603405e-06
7.863150e-07
1.267272e-07
7.774973e-08
2.950906e-08
1.750878e-08
1.403528e-08
8.619917e-09
4.155595e-09
1.378949e-09
1.381949e-10
3.117630e-11
2.706450e-11
2.265897e-11
1.444678e-11
7.031955e-12
3.268927e-12
1.492782e-12
6.829337e-13
3.120514e-13
1.412497e-13
6.590414e-14
2.222216e-14
2.206704e-15
3.720186e-16
2.682970e-16
1.074818e-16
5.353909e-17
9.289251e-18
9.166502e-18
7.749837e-18
4.519192e-18
1.211511e-18
-1.940441e-20
-2.535602e-20
-1.983750e-20
-1.083146e-20
-4.807143e-21
-2.145627e-21
-5.379384e-22
-5.169834e-23
-1.387794e-23
-1.184854e-23
-3.514587e-24
1.000000e+00
1.000000e+00
1.000000e+00
1.000000e+00
1.000000e+00
1.000000e+00
1.000000e+00
1.000000e+00
1.000000e+00
9.999994e-01
9.999995e-01
9.999941e-01
9.999912e-01
9.999878e-01
9.993627e-01
9.962228e-01
9.859927e-01
9.586023e-01
8.992896e-01
8.088018e-01
7.066974e-01
5.196834e-01
4.154755e-01
2.429618e-01
1.591074e-01
8.337336e-02
4.024833e-02
1.763036e-02
6.876576e-03
2.318661e-03
6.518879e-04
1.577193e-04
5.712374e-05
3.638954e-05
2.314146e-05
1.077858e-05
4.195740e-06
2.734752e-06
1.521386e-06
7.229993e-07
3.000176e-07
6.719910e-08
1.410831e-08
8.409248e-09
4.394025e-09
3.377631e-09
2.071339e-09
7.869825e-10
1.289349e-10
2.197633e-11
5.316413e-12
3.172577e-12
3.188248e-12
1.206811e-12
6.297641e-13
1.924640e-13
1.297176e-13
6.561142e-14
5.313345e-14
3.199686e-14
1.446770e-14
6.488351e-15
2.934589e-15
1.388469e-15
4.523809e-16
4.854930e-17
8.789623e-18
5.480535e-18
4.258310e-18
2.374262e-18
1.030638e-18
4.542034e-19
1.537886e-19
8.951463e-21
-3.429071e-21
-2.200112e-21
-1.167022e-21
-5.204986e-22
-2.313487e-22
-8.843842e-23
1.000000e+00
1.000000e+00
1.000000e+00
1.000000e+00
1.000000e+00
1.000000e+00
1.000000e+00
1.000000e+00
1.000000e+00
9.999998e-01
9.999998e-01
9.999982e-01
9.999938e-01
9.999952e-01
9.999365e-01
9.991169e-01
9.953276e-01
9.837789e-01
9.546862e-01
8.884935e-01
8.115203e-01
7.049312e-01
5.185002e-01
4.165348e-01
2.444676e-01
1.648858e-01
8.847380e-02
4.337767e-02
1.929609e-02
7.719408e-03
2.720058e-03
8.174665e-04
2.204827e-04
7.398148e-05
4.180440e-05
2.779357e-05
1.314179e-05
3.264109e-06
1.563426e-06
7.276095e-07
5.745752e-07
3.713503e-07
1.986903e-07
6.908549e-08
1.037609e-08
3.276340e-09
1.899074e-09
1.565406e-09
1.000966e-09
4.814557e-10
2.245878e-10
1.061364e-10
4.790033e-11
2.219902e-11
1.015906e-11
4.952547e-12
1.658810e-12
1.966720e-13
3.642987e-14
2.500875e-14
6.273515e-15
4.582376e-15
1.674087e-15
1.201721e-15
1.062573e-15
6.212621e-16
1.757362e-16
8.171912e-18
3.169231e-18
2.074469e-18
3.027690e-19
3.826173e-19
3.302181e-19
2.013446e-19
9.168979e-20
3.918985e-20
1.697531e-20
7.537435e-21
3.477145e-21
1.380759e-21
1.000000e+00
1.000000e+00
1.000000e+00
1.000000e+00
1.000000e+00
1.000000e+00
1.000000e+00
1.000000e+00
1.000000e+00
9.999999e-01
9.999998e-01
9.999998e-01
9.999966e-01
9.999956e-01
9.999974e-01
9.998374e-01
9.989857e-01
9.937534e-01
9.845986e-01
9.402735e-01
8.937236e-01
7.989529e-01
7.032550e-01
5.214542e-01
4.170938e-01
2.477923e-01
1.704422e-01
9.361500e-02
4.702440e-02
2.140320e-02
8.803671e-03
3.214459e-03
1.011203e-03
2.708324e-04
7.384811e-05
3.841358e-05
2.958568e-05
1.972774e-05
9.396700e-06
3.063092e-06
6.318075e-07
3.709950e-07
2.027865e-07
1.595261e-07
1.021337e-07
4.133353e-08
9.016428e-09
1.140470e-09
6.862242e-10
4.802512e-10
1.921622e-10
1.057972e-10
3.962972e-11
2.095112e-11
8.916082e-12
4.993901e-12
4.018318e-12
2.441084e-12
1.123107e-12
5.079513e-13
2.355371e-13
1.109707e-13
3.751347e-14
5.554891e-15
9.030797e-16
8.145223e-16
6.142209e-16
3.266902e-16
1.447028e-16
6.624220e-17
2.483269e-17
3.542165e-18
4.545462e-20
1.866097e-19
8.337341e-20
-1.324853e-20
-5.265119e-21
5.904389e-21
3.080359e-21
9.475001e-22
1.000000e+00
1.000000e+00
1.000000e+00
1.000000e+00
1.000000e+00
1.000000e+00
1.000000e+00
1.000000e+00
1.000000e+00
1.000000e+00
9.999999e-01
9.999999e-01
9.999990e-01
9.999967e-01
9.999967e-01
9.999277e-01
9.999509e-01
9.969495e-01
9.968056e-01
9.755343e-01
9.436451e-01
8.871966e-01
7.907037e-01
7.010482e-01
5.219103e-01
4.173730e-01
2.502643e-01
1.743288e-01
9.757659e-02
5.027133e-02
2.345213e-02
9.938756e-03
3.803917e-03
1.287311e-03
3.701679e-04
8.420288e-05
3.055502e-05
1.995861e-05
1.453515e-05
9.798220e-06
5.060649e-06
1.880422e-06
5.422132e-07
1.436090e-07
9.692333e-08
7.838332e-08
5.057297e-08
2.525694e-08
1.168451e-08
5.467509e-09
2.560722e-09
1.183951e-09
5.612190e-10
2.738594e-10
9.651752e-11
1.384318e-11
3.832274e-12
1.998190e-12
6.961722e-13
4.652030e-13
2.042168e-13
1.083547e-13
8.946445e-14
5.001155e-14
1.444180e-14
9.764130e-16
2.250696e-16
1.914949e-16
1.213464e-16
6.675517e-17
5.013883e-17
3.188616e-17
1.473249e-17
6.554147e-18
2.934826e-18
1.345246e-18
6.169995e-19
2.695933e-19
1.214274e-19
5.422679e-20
1.000000e+00
1.000000e+00
1.000000e+00
1.000000e+00
1.000000e+00
1.000000e+00
1.000000e+00
1.000000e+00
1.000000e+00
1.000000e+00
1.000000e+00
9.999999e-01
9.999999e-01
9.999982e-01
9.999988e-01
9.999666e-01
9.999885e-01
9.986434e-01
9.986418e-01
9.923153e-01
9.748898e-01
9.412190e-01
8.823229e-01
7.836601e-01
6.994377e-01
5.244274e-01
4.205802e-01
2.545477e-01
1.789681e-01
1.013916e-01
5.351276e-02
2.546092e-02
1.098838e-02
4.329887e-03
1.563789e-03
5.140671e-04
1.499958e-04
4.590267e-05
1.919104e-05
1.187457e-05
7.912004e-06
4.298089e-06
2.365760e-06
1.187132e-06
4.199441e-07
8.221840e-08
5.035647e-08
2.173719e-08
9.623809e-09
5.015428e-09
2.024717e-09
1.053630e-09
4.783490e-10
2.737199e-10
2.289575e-10
1.403621e-10
6.558370e-11
3.063091e-11
1.444158e-11
6.787324e-12
2.300640e-12
3.977098e-13
8.494781e-14
7.369477e-14
5.214283e-14
2.834186e-14
1.266390e-14
6.045765e-15
2.263457e-15
3.765113e-16
2.528085e-17
2.852215e-17
1.354391e-17
6.017882e-18
2.746723e-18
1.322023e-18
2.610534e-19
1.366346e-19
9.631027e-20
5.121780e-20
1.000000e+00
1.000000e+00
1.000000e+00
1.000000e+00
1.000000e+00
1.000000e+00
1.000000e+00
1.000000e+00
1.000000e+00
1.000000e+00
1.000000e+00
1.000000e+00
1.000000e+00
9.999992e-01
9.999993e-01
9.999851e-01
1.000000e+00
9.993897e-01
9.993732e-01
9.979429e-01
9.904823e-01
9.730224e-01
9.372453e-01
8.796959e-01
7.715183e-01
6.918126e-01
5.232556e-01
4.221560e-01
2.585240e-01
1.839634e-01
1.048053e-01
5.698503e-02
2.781666e-02
1.219501e-02
4.826426e-03
1.742245e-03
5.774872e-04
1.834997e-04
6.129071e-05
2.424855e-05
1.286163e-05
7.951385e-06
3.748538e-06
1.716706e-06
1.108374e-06
6.987961e-07
3.404512e-07
1.746778e-07
8.712549e-08
4.349478e-08
2.134254e-08
1.067746e-08
3.993011e-09
7.456447e-10
1.945633e-10
1.410905e-10
4.941544e-11
3.098943e-11
1.193413e-11
6.691264e-12
5.619391e-12
3.091239e-12
8.856555e-13
6.746676e-14
4.108014e-14
2.855745e-14
1.095878e-14
5.945139e-15
4.677732e-15
2.941527e-15
1.393791e-15
6.207715e-16
2.823576e-16
1.278462e-16
5.836630e-17
2.667819e-17
1.251254e-17
5.832789e-18
1.895832e-18
3.046505e-19
1.000000e+00
1.000000e+00
1.000000e+00
1.000000e+00
1.000000e+00
1.000000e+00
1.000000e+00
1.000000e+00
1.000000e+00
1.000000e+00
1.000000e+00
1.000000e+00
1.000000e+00
9.999997e-01
9.999998e-01
9.999932e-01
9.999977e-01
9.997702e-01
9.995598e-01
9.994458e-01
9.969500e-01
9.892296e-01
9.704413e-01
9.337994e-01
8.782959e-01
7.662059e-01
6.869210e-01
5.219552e-01
4.232486e-01
2.619141e-01
1.899032e-01
1.067423e-01
5.989720e-02
3.034373e-02
1.378785e-02
5.611887e-03
2.048873e-03
6.802087e-04
2.155508e-04
7.259683e-05
2.785375e-05
1.401023e-05
1.011461e-05
4.646269e-06
1.605444e-06
6.741267e-07
3.363762e-07
1.713000e-07
8.511363e-08
4.240228e-08
1.913129e-08
1.089037e-08
8.825655e-09
5.545279e-09
2.741343e-09
1.341263e-09
6.284422e-10
3.100689e-10
1.099600e-10
2.245086e-11
5.783536e-12
4.747536e-12
3.296707e-12
1.782272e-12
8.081591e-13
3.932056e-13
1.478819e-13
2.552730e-14
3.539524e-15
2.727256e-15
1.324455e-15
6.301159e-16
1.705471e-16
1.006236e-16
5.404756e-17
2.698120e-17
1.134728e-17
5.498069e-18
4.582703e-18
2.454084e-18
1.000000e+00
1.000000e+00
1.000000e+00
1.000000e+00
1.000000e+00
1.000000e+00
1.000000e+00
1.000000e+00
1.000000e+00
1.000000e+00
1.000000e+00
1.000000e+00
1.000000e+00
9.999998e-01