# vtk DataFile Version 3.0
MUSCL
ASCII
DATASET STRUCTURED_POINTS
DIMENSIONS 80 80 1
ORIGIN 0 0 0
SPACING 0.0125 0.0125 1
POINT_DATA 6400
SCALARS Temperature double 1
LOOKUP_TABLE default
0.000000e+00
-6.739982e-01
-1.939477e-01
-2.456786e-02
-3.505603e-04
3.252145e-05
1.964743e-06
-2.464850e-08
-2.184527e-07
-1.181230e-07
-4.955046e-08
-2.015982e-08
-8.152807e-09
-3.329393e-09
-1.317175e-09
-1.675590e-10
1.540592e-11
2.042876e-12
8.646346e-13
1.041970e-13
3.219879e-15
2.779061e-14
1.971318e-14
7.976541e-15
2.947281e-15
1.092748e-15
4.256244e-16
1.750065e-16
7.637012e-17
3.626547e-17
1.901729e-17
8.393095e-18
2.679684e-18
6.143498e-19
1.054124e-19
1.309204e-20
5.684114e-21
1.471250e-20
1.647281e-20
7.765523e-21
2.440753e-22
-1.882135e-23
-2.879781e-23
-1.461344e-23
-6.041047e-24
-2.410330e-24
-9.434916e-25
-3.762358e-25
-1.592975e-25
-7.159981e-26
-3.662822e-26
-1.171831e-26
-1.064663e-28
4.000285e-29
3.517693e-29
1.416936e-29
6.073409e-30
2.926621e-30
1.414303e-30
6.500563e-31
2.812185e-31
2.442144e-32
-2.398398e-33
-9.605866e-34
-3.021612e-34
-1.320268e-34
-5.919769e-35
-2.491170e-35
-1.003615e-35
-3.969789e-36
-1.554118e-36
-5.992630e-37
-2.267830e-37
-8.416962e-38
-3.171288e-38
-1.261641e-40
1.284817e-40
5.985948e-41
2.177124e-41
1.544102e-41
1.326002e+00
6.739982e-01
1.939477e-01
2.456786e-02
3.505603e-04
-3.252145e-05
-1.964743e-06
2.464850e-08
2.184527e-07
1.181230e-07
4.955046e-08
2.015982e-08
8.152807e-09
3.329393e-09
1.317175e-09
1.675590e-10
-1.540592e-11
-2.042876e-12
-8.646346e-13
-1.041970e-13
-3.219879e-15
-2.779061e-14
-1.971318e-14
-7.976541e-15
-2.947281e-15
-1.092748e-15
-4.256244e-16
-1.750065e-16
-7.637012e-17
-3.626547e-17
-1.901729e-17
-8.393095e-18
-2.679684e-18
-6.143498e-19
-1.054124e-19
-1.309204e-20
-5.684114e-21
-1.471250e-20
-1.647281e-20
-7.765523e-21
-2.440753e-22
1.882135e-23
2.879781e-23
1.461344e-23
6.041047e-24
2.410330e-24
9.434916e-25
3.762358e-25
1.592975e-25
7.159981e-26
3.662822e-26
1.171831e-26
1.064663e-28
-4.000285e-29
-3.517693e-29
-1.416936e-29
-6.073409e-30
-2.926621e-30
-1.414303e-30
-6.500563e-31
-2.812185e-31
-2.442144e-32
2.398398e-33
9.605866e-34
3.021612e-34
1.320268e-34
5.919769e-35
2.491170e-35
1.003615e-35
3.969789e-36
1.554118e-36
5.992630e-37
2.267830e-37
8.416962e-38
3.171288e-38
1.261641e-40
-1.284817e-40
-5.985948e-41
-2.177124e-41
-1.544102e-41
1.041929e+00
9.580714e-01
5.986570e-01
2.397749e-01
5.878048e-02
3.867521e-03
-1.159771e-04
-5.803631e-05
-2.562094e-05
-1.121651e-05
-5.094740e-06
-2.276985e-06
-9.787082e-07
-2.587939e-07
-5.542974e-10
1.708271e-09
9.521329e-10
2.883272e-10
3.339332e-12
-1.046029e-12
-7.279976e-13
-1.764671e-14
-1.558752e-14
6.227500e-15
-4.444054e-16
1.437282e-16
7.809976e-16
6.136400e-16
3.195411e-16
1.530497e-16
5.066649e-17
1.042548e-17
8.038931e-19
-1.101207e-19
4.865421e-20
7.484960e-20
3.001469e-20
-7.997047e-21
-1.397960e-20
-6.851340e-21
-9.263764e-21
-7.234802e-21
-3.445534e-21
-1.566686e-21
-6.679977e-22
-2.744762e-22
-1.107718e-22
-4.457668e-23
-1.864126e-23
-7.136583e-24
-1.092381e-24
2.452942e-26
1.983201e-26
1.164744e-26
5.608297e-27
2.522747e-27
1.085037e-27
4.510691e-28
1.845522e-28
6.300821e-29
1.455487e-30
-1.047263e-31
-2.023018e-31
-9.917047e-32
-4.048745e-32
-1.663574e-32
-6.801090e-33
-2.773566e-33
-1.134217e-33
-4.653155e-34
-1.906130e-34
-7.729592e-35
-3.179532e-35
-9.294042e-36
-9.854937e-38
5.615257e-38
3.257396e-38
1.029858e-38
3.260174e-39
1.946557e-39
9.989385e-01
1.001062e+00
8.858059e-01
5.930759e-01
2.706028e-01
8.402028e-02
1.594500e-02
1.208323e-03
4.728642e-04
2.032991e-04
7.328964e-05
8.666631e-06
-1.089634e-06
-9.048318e-07
-5.180762e-07
-1.910902e-07
-1.650303e-08
4.547069e-10
4.289655e-10
1.816876e-10
1.146167e-12
-1.775069e-12
-7.628895e-13
-4.336182e-13
-1.921365e-13
-7.701429e-14
-2.927110e-14
-1.079295e-14
-3.019263e-15
-8.233646e-16
-2.595551e-16
-9.248279e-17
-3.641755e-17
-1.711869e-17
-8.594032e-18
-4.205740e-18
-2.070172e-18
-9.768430e-19
-4.215553e-19
-9.485880e-20
-1.035753e-20
-5.026318e-21
1.697055e-21
-9.718810e-22
-3.532046e-22
-1.539574e-22
-6.801875e-23
-2.930989e-23
-1.660777e-23
-1.170996e-23
-7.643859e-24
-3.929726e-24
-1.826768e-24
-8.514790e-25
-3.983359e-25
-1.856567e-25
-8.711588e-26
-3.306596e-26
-6.262248e-27
4.503684e-29
9.046138e-29
6.020646e-29
2.607780e-29
1.020525e-29
3.915664e-30
1.501960e-30
5.777831e-31
2.242750e-31
8.834753e-32
3.531946e-32
1.423585e-32
6.014593e-33
1.541032e-33
2.660755e-35
-1.175730e-35
-7.653108e-36
-3.019679e-36
-1.193785e-36
-4.814860e-37
-2.459308e-37
9.998865e-01
1.000113e+00
9.862746e-01
8.523343e-01
5.808587e-01
2.962261e-01
9.866221e-02
2.178871e-02
6.104676e-04
1.925196e-04
1.356698e-04
8.736434e-05
3.955946e-05
7.757314e-06
-4.466551e-07
-3.929454e-07
-2.726730e-07
-7.688391e-08
-1.476545e-09
1.364178e-10
2.494469e-10
1.639222e-10
7.631366e-11
3.404998e-11
1.312687e-11
2.623205e-12
3.215200e-14
-1.420690e-14
-2.894692e-15
-8.764479e-16
-2.493159e-16
-1.096287e-17
1.341706e-16
1.301095e-16
6.936398e-17
2.101580e-17
-7.584340e-19
-1.007979e-18
-8.459895e-19
-5.252993e-19
-3.318491e-19
-1.976282e-19
-1.102160e-19
-5.267991e-20
-2.362006e-20
-1.006645e-20
-4.247869e-21
-1.548319e-21
-2.652181e-22
-1.437588e-23
-5.576425e-24
-3.654537e-24
-7.496435e-26
2.493010e-25
1.078122e-25
-8.987150e-26
-7.931150e-26
-6.407020e-26
-4.166624e-26
-2.198415e-26
-9.538649e-27
-4.090857e-27
-1.741403e-27
-7.376108e-28
-3.109277e-28
-1.305720e-28
-5.445892e-29
-2.257550e-29
-9.301280e-30
-3.561911e-30
-9.158281e-31
5.214947e-34
1.768633e-33
2.938226e-33
1.600232e-33
5.924744e-34
2.267680e-34
9.131824e-35
3.683421e-35
1.577715e-35
9.999708e-01
1.000029e+00
1.000047e+00
9.657368e-01
8.297096e-01
5.646344e-01
3.365295e-01
1.267135e-01
3.481653e-02
2.612015e-03
1.122012e-04
6.667250e-05
6.058315e-05
4.353491e-05
1.843440e-05
2.792814e-06
-3.509564e-07
-2.411215e-07
-1.413465e-07
-6.209103e-08
-2.564864e-08
-1.089475e-08
-3.719042e-09
-2.491699e-10
7.581263e-12
1.272123e-11
6.431411e-12
4.070277e-13
-1.835525e-14
-1.852922e-14
-7.703795e-15
-3.243096e-15
-1.190455e-15
-4.151600e-16
3.961891e-17
6.040938e-17
4.189404e-17
1.964968e-17
7.784793e-18
2.165524e-18
1.254342e-19
-1.708102e-19
-6.508775e-20
-3.723862e-20
-1.232714e-20
-8.080349e-21
-4.257412e-21
-2.839156e-21
-1.764080e-21
-8.089167e-22
-3.451912e-22
-1.524324e-22
-6.862172e-23
-3.191355e-23
-1.556934e-23
-6.080477e-24
-7.142914e-25
-1.894459e-26
-2.855044e-26
-2.035803e-26
-8.053400e-27
-2.309026e-27
-8.985185e-28
-4.778577e-28
-2.667405e-28
1.154898e-28
1.193770e-29
-1.474430e-29
-9.333256e-30
-5.974442e-30
-3.554928e-30
-1.804184e-30
-7.057394e-31
-2.771223e-31
-1.087177e-31
-4.236199e-32
-1.646639e-32
-6.080930e-33
-1.242629e-33
1.916159e-35
9.999952e-01
1.000005e+00
1.000030e+00
9.984148e-01
9.484810e-01
8.110944e-01
5.426642e-01
3.576738e-01
1.479705e-01
5.012125e-02
9.531598e-03
9.006297e-05
-2.354545e-05
3.810959e-05
3.338118e-05
2.155253e-05
1.067635e-05
4.533283e-06
1.887571e-06
7.385772e-07
1.334116e-07
-1.172965e-08
-8.220311e-09
-5.275225e-09
-1.400353e-09
-9.204206e-12
7.740935e-12
7.316948e-12
3.543322e-12
1.568193e-12
6.812633e-13
3.115988e-13
1.046223e-13
2.421245e-15
-3.688360e-17
-3.589548e-16
-1.753488e-16
-6.662230e-17
-3.067067e-17
-1.687063e-17
-9.693864e-18
-5.232057e-18
-2.630401e-18
-1.217078e-18
-5.470498e-19
-2.345796e-19
-6.186450e-20
-2.658968e-21
-8.355525e-23
-1.509587e-22
-1.572506e-22
-1.363920e-22
-1.524977e-23
-2.037061e-23
-1.387132e-23
-1.063303e-23
-7.956434e-24
-3.756711e-24
-1.747271e-24
-7.962521e-25
-3.588611e-25
-1.589035e-25
-6.922334e-26
-2.964415e-26
-1.253506e-26
-5.463587e-27
-2.209012e-27
-7.605961e-28
-1.292934e-28
1.335514e-30
-1.653573e-30
-1.550702e-30
-3.655609e-31
-3.018378e-32
-4.503909e-32
-2.501894e-32
-1.348831e-32
-4.821155e-33
-5.226110e-33
-2.821503e-33
9.999983e-01
1.000002e+00
1.000010e+00
1.000135e+00
9.918648e-01
9.347965e-01
7.949207e-01
5.168055e-01
3.729470e-01
1.555753e-01
5.830262e-02
1.608626e-02
2.169091e-03
4.620311e-05
3.183954e-05
2.167219e-05
1.059424e-05
4.649102e-06
1.960072e-06
1.086319e-06
7.727460e-07
3.195207e-07
3.977192e-08
-5.724885e-09
-4.587553e-09
-2.549342e-09
-1.090401e-09
-4.662010e-10
-2.002760e-10
-8.746530e-11
-3.138414e-11
-3.174799e-12
2.693902e-13
1.628567e-13
8.141661e-14
3.603383e-14
1.592634e-14
7.050286e-15
3.091236e-15
1.333050e-15
5.644969e-16
2.355340e-16
9.265634e-17
2.289413e-17
-5.525291e-19
-3.145145e-19
-2.179865e-19
-1.099735e-19
-4.675927e-20
-1.972496e-20
-8.457370e-21
-3.721304e-21
-1.709352e-21
-8.220181e-22
-2.231819e-22
-1.429205e-23
-5.675669e-24
3.169173e-25
-1.561855e-24
-2.690483e-25
-2.978433e-25
-1.169884e-25
-4.471195e-26
-1.918398e-26
-9.529472e-27
-5.150939e-27
-3.219705e-27
-1.937093e-27
-1.074377e-27
-4.567042e-28
-1.858319e-28
-7.569072e-29
-3.098378e-29
-1.233182e-29
-4.981227e-30
-2.000288e-30
-6.413470e-31
-5.488868e-32
5.475406e-33
-2.130299e-33
9.999990e-01
1.000001e+00
1.000001e+00
1.000029e+00
1.000054e+00
9.854492e-01
9.218612e-01
7.794980e-01
5.212707e-01
3.784450e-01
1.649369e-01
6.671994e-02
2.049656e-02
4.294027e-03
3.676764e-04
7.828862e-05
4.598062e-05
2.554958e-05
9.448344e-06
1.988656e-06
7.582735e-07
6.133954e-07
3.853289e-07
1.876156e-07
8.173126e-08
3.459822e-08
1.478670e-08
5.024350e-09
8.190364e-10
-1.084256e-10
-6.951989e-11
-4.254233e-11
-1.990233e-11
-8.621609e-12
-3.727677e-12
-1.599806e-12
-6.824447e-13
-2.910250e-13
-1.243101e-13
-5.070921e-14
-1.371596e-14
-6.494967e-17
1.413889e-16
9.271654e-17
4.346924e-17
1.073639e-17
1.315491e-18
4.923559e-19
2.975063e-19
1.566672e-19
7.219222e-20
2.274867e-20
1.080638e-21
-9.963908e-22
-7.386308e-22
-4.079515e-22
-1.941836e-22
-9.224331e-23
-4.448976e-23
-2.077936e-23
-9.381869e-24
-4.237018e-24
-1.846551e-24
-7.728223e-25
-2.575059e-25
-4.991496e-26
-4.118879e-28
-1.690546e-27
-4.012673e-28
-2.121590e-28
-1.152795e-28
-5.720674e-29
-3.063691e-29
-2.572712e-30
-8.179071e-31
-9.254661e-31
-6.221765e-31
-6.306049e-31
-3.561096e-31
-1.277792e-31
9.999997e-01
1.000000e+00
1.000000e+00
1.000011e+00
1.000019e+00
9.989263e-01
9.786687e-01
9.079817e-01
7.698512e-01
5.221902e-01
3.810895e-01
1.772064e-01
7.566744e-02
2.535449e-02
5.872032e-03
4.307660e-04
5.117287e-05
3.032444e-05
2.418185e-05
1.326954e-05
3.711219e-06
6.103748e-07
3.798326e-07
1.873097e-07
8.102811e-08
3.372683e-08
1.515066e-08
1.037652e-08
6.731260e-09
3.280545e-09
1.273899e-09
4.728027e-10
1.747835e-10
6.620832e-11
2.612838e-11
1.072980e-11
4.810039e-12
1.332645e-12
-1.077522e-13
-7.931449e-14
-5.187099e-14
-2.567793e-14
-4.598419e-15
-2.320919e-17
6.390583e-17
3.431538e-17
9.470376e-18
3.420163e-19
7.208012e-20
1.353847e-19
7.089529e-20
5.679638e-20
3.377008e-20
1.525989e-20
5.114958e-21
1.071503e-21
-1.209853e-22
-1.060254e-22
-3.166531e-23
1.447773e-24
-8.828135e-25
-1.784710e-24
-1.437202e-24
-1.067193e-24
-6.869676e-25
-3.940550e-25
-1.821702e-25
-7.386224e-26
-3.059008e-26
-1.329721e-26
-5.603193e-27
-2.308532e-27
-9.408226e-28
-3.890558e-28
-1.341793e-28
-3.371967e-29
-1.236993e-30
-2.318838e-31
-2.451601e-31
-3.847151e-32
9.999999e-01
1.000000e+00
1.000000e+00
1.000001e+00
1.000013e+00
1.000030e+00
9.972046e-01
9.709603e-01
8.969272e-01
7.615901e-01
5.237268e-01
3.741234e-01
1.874800e-01
8.577393e-02
3.194461e-02
8.874884e-03
1.240364e-03
2.727819e-05
2.304994e-05
2.091566e-05
1.531371e-05
6.556627e-06
1.825364e-06
6.601997e-07
3.853922e-07
2.194456e-07
8.818723e-08
1.402627e-08
5.136165e-09
3.170349e-09
9.488978e-10
3.782849e-10
1.355651e-10
4.066224e-11
1.269467e-11
7.906253e-12
4.439696e-12
3.799810e-12
2.204815e-12
4.032438e-13
-5.705790e-14
-4.055711e-14
-2.767723e-14
-1.094701e-14
-1.313449e-15
3.044544e-17
4.464531e-17
2.476880e-17
1.075400e-17
4.673491e-18
8.734620e-19
7.337812e-20
2.684918e-20
1.558045e-20
9.437631e-21
5.092303e-21
2.503800e-21
1.021882e-21
1.581082e-22
-4.887046e-24
-3.082890e-24
-2.166759e-24
-1.633603e-24
-7.847514e-25
-4.022772e-25
-2.817489e-25
-1.979436e-25
-1.118558e-25
-4.467896e-26
-1.367890e-26
-5.394485e-27
-2.372682e-27
-8.430157e-28
-3.718567e-28
-2.708556e-28
-1.487917e-28
-6.849219e-29
-2.432077e-29
-1.076439e-29
-5.085897e-30
1.000000e+00
1.000000e+00
1.000000e+00
9.999999e-01
1.000007e+00
1.000009e+00
1.000036e+00
9.943805e-01
9.638162e-01
8.860643e-01
7.588675e-01
5.119128e-01
3.893420e-01
1.921150e-01
9.237747e-02
3.718023e-02
1.167097e-02
2.283856e-03
5.901639e-05
1.725325e-05
1.549214e-05
1.277337e-05
7.097426e-06
1.947191e-06
3.884401e-07
2.217149e-07
1.875096e-07
1.265720e-07
6.520953e-08
3.175574e-08
1.492558e-08
6.757587e-09
3.003394e-09
1.314433e-09
6.168624e-10
1.999186e-10
2.389900e-11
3.326378e-12
2.977627e-12
2.404032e-12
1.163604e-12
1.912732e-13
-3.021287e-14
-2.275347e-14
-1.451906e-14
-7.091683e-15
-3.056682e-15
-8.047559e-16
3.260164e-18
1.495054e-17
4.517864e-18
2.305040e-18
7.516928e-19
7.514292e-20
3.370908e-21
2.141250e-21
1.860905e-21
1.397091e-21
1.100050e-21
5.590525e-22
2.394577e-22
5.587155e-23
-6.530221e-25
-1.050281e-24
-9.235454e-25
-5.737413e-25
-3.540723e-25
-2.279886e-25
-1.437119e-25
-7.809269e-26
-3.744149e-26
-1.812819e-26
-7.033769e-27
-1.880112e-27
-2.457627e-28
-1.498682e-28
-6.849001e-29
-1.693357e-29
-1.017396e-29
-6.915297e-30
1.000000e+00
1.000000e+00
1.000000e+00
1.000000e+00
1.000002e+00
1.000005e+00
1.000010e+00
9.997422e-01
9.913899e-01
9.547565e-01
8.816852e-01
7.453687e-01
5.159148e-01
3.938182e-01
1.986512e-01
9.890211e-02
4.197643e-02
1.453109e-02
3.630306e-03
3.430392e-04
1.729022e-05
1.502048e-05
1.244661e-05
9.140754e-06
3.959974e-06
7.146345e-07
1.715871e-07
1.257055e-07
6.409333e-08
3.114952e-08
1.165390e-08
5.994826e-09
2.335214e-09
1.232283e-09
6.208530e-10
4.977404e-10
2.794123e-10
6.983131e-11
1.807008e-12
2.218988e-12
1.843485e-12
1.367463e-12
6.921631e-13
3.121058e-13
1.015297e-13
3.031730e-15
-3.675085e-15
-2.780507e-15
-1.518926e-15
-6.794281e-16
-2.288937e-16
-2.107237e-17
2.740649e-18
1.333516e-18
5.868710e-19
1.827042e-19
2.743466e-20
-2.108912e-21
8.587803e-22
4.680872e-22
3.314231e-22
2.717533e-22
1.483277e-22
6.685230e-23
3.107641e-23
1.455340e-23
6.678015e-24
2.928097e-24
1.230443e-24
5.187454e-25
9.442791e-26
-1.551590e-26
-1.348149e-26
-8.295822e-27
-3.964086e-27
-1.772927e-27
-7.882509e-28
-2.902831e-28
-6.317499e-29
-6.680652e-30
1.000000e+00
1.000000e+00
1.000000e+00
1.000000e+00
1.000000e+00
1.000002e+00
1.000007e+00
9.999036e-01
9.998312e-01
9.862848e-01
9.507749e-01
8.714886e-01
7.384195e-01
5.161481e-01
3.972057e-01
2.051922e-01
1.051907e-01
4.638355e-02
1.745305e-02
5.013946e-03
6.081103e-04
-9.897548e-06
7.850927e-06
8.780560e-06
7.663836e-06
4.906378e-06
2.401469e-06
1.137832e-06
5.578964e-07
2.706287e-07
1.324271e-07
6.278554e-08
3.139563e-08
1.151645e-08
2.354357e-09
4.957281e-10
4.019434e-10
2.997297e-10
1.390076e-10
2.667572e-11
1.554563e-12
1.227414e-12
8.129489e-14
3.043825e-13
2.373739e-13
1.424355e-13
6.524308e-14
2.787669e-14
7.460481e-15
-5.694191e-16
-4.836643e-16
-3.091631e-16
-1.504780e-16
-4.179760e-17
4.518479e-19
4.924966e-19
3.288036e-19
1.295901e-19
5.604885e-20
1.475026e-20
4.433329e-22
-2.053140e-22
-5.090504e-23
-4.025428e-23
2.674169e-24
1.035386e-24
6.101287e-25
3.499299e-25
5.076530e-25
5.084708e-25
4.465827e-25
2.443428e-25
1.038089e-25
4.495548e-26
1.703071e-26
1.407218e-27
-8.930598e-28
-5.784370e-28
-3.436105e-28
-1.736940e-28
1.000000e+00
1.000000e+00
1.000000e+00
1.000000e+00
1.000000e+00
1.000000e+00
1.000004e+00
9.999608e-01
1.000047e+00
9.976263e-01
9.838100e-01
9.446649e-01
8.634603e-01
7.326247e-01
5.157562e-01
4.002010e-01
2.115689e-01
1.116980e-01
5.055120e-02
2.039824e-02
7.042433e-03
1.747007e-03
2.213756e-04
6.621572e-06
4.475399e-06
1.982432e-06
1.262397e-06
8.361928e-07
5.829417e-08
9.076672e-08
8.638356e-08
6.200385e-08
3.211563e-08
2.511683e-08
1.481567e-08
4.870902e-09
5.151922e-10
3.020781e-10
2.293343e-10
1.620129e-10
7.598860e-11
3.696846e-11
1.426985e-11
1.847714e-12
-2.668625e-14
1.381873e-13
4.545426e-14
2.620678e-14
2.172992e-14
1.256476e-14
4.345540e-15
4.098803e-16
-1.407029e-16
-1.323769e-16
-7.613281e-17
-3.377686e-17
-9.172358e-18
1.687623e-20
5.656987e-20
5.321565e-20
3.066312e-20
1.438017e-20
6.837443e-21
3.096782e-21
1.376342e-21
6.124114e-22
2.721460e-22
1.181489e-22
2.962298e-23
8.743972e-25
4.709298e-25
-2.021504e-25
1.804007e-26
2.765859e-26
2.541070e-26
2.136328e-26
1.063388e-26
1.963910e-27
-3.452461e-28
-2.284372e-28
1.000000e+00
1.000000e+00
1.000000e+00
1.000000e+00
1.000000e+00
1.000000e+00
1.000002e+00
9.999847e-01
9.999926e-01
9.999181e-01
9.962679e-01
9.802530e-01
9.386842e-01
8.559091e-01
7.276555e-01
5.149860e-01
4.022623e-01
2.166901e-01
1.189505e-01
5.368352e-02
2.138824e-02
7.348054e-03
2.231359e-03
7.128733e-04
3.213879e-04
1.421939e-04
6.268569e-05
2.791570e-05
1.249897e-05
5.579053e-06
2.607661e-06
8.410059e-07
1.117520e-07
2.225168e-08
1.906482e-08
1.500081e-08
7.995801e-09
2.130143e-09
2.115136e-10
9.223249e-11
7.080392e-11
3.660021e-11
2.970025e-11
1.903973e-11
9.107214e-12
4.246624e-12
1.409908e-12
1.014724e-13
5.188463e-15
9.968979e-15
8.662560e-15
5.217643e-15
2.546347e-15
8.256858e-16
1.375012e-17
-3.666290e-17
-3.062393e-17
-1.681902e-17
-7.200199e-18
-3.089249e-18
-1.324056e-18
-5.672126e-19
-2.429197e-19
-1.034509e-19
-4.622302e-20
-1.330477e-20
1.883074e-22
1.449448e-22
1.153483e-22
6.152472e-23
2.678898e-23
1.175748e-23
4.610340e-24
9.800600e-25
-1.647076e-26
1.653039e-26
1.355543e-26
1.077440e-26
5.933947e-27
2.791442e-27
1.000000e+00
1.000000e+00
1.000000e+00
1.000000e+00
1.000000e+00
1.000000e+00
1.000001e+00
9.999938e-01
9.999932e-01
1.000001e+00
9.996701e-01
9.947814e-01
9.764171e-01
9.334840e-01
8.476262e-01
7.250103e-01
5.158296e-01
4.044346e-01
2.191776e-01
1.311272e-01
6.149970e-02
2.463194e-02
8.077361e-03
1.881066e-03
3.454086e-04
1.232068e-04
5.195633e-05
2.401532e-05
1.084469e-05
5.423428e-06
2.668960e-06
2.146179e-06
1.184123e-06
2.971898e-07
1.474245e-08
1.095356e-08
1.195351e-08
8.768600e-09
4.399678e-09
2.129200e-09
8.526274e-10
1.633213e-10
2.627569e-11
1.839138e-11
9.158829e-12
4.369877e-12
3.484700e-12
2.159309e-12
8.671602e-13
1.650074e-13
5.864073e-15
4.925073e-15
2.558469e-15
1.825285e-15
1.137937e-15
5.207931e-16
2.095607e-16
8.064672e-17
3.018401e-17
1.085345e-17
3.702983e-18
1.164005e-18
3.240771e-19
3.673508e-20
-4.312855e-20
-3.795531e-20
-2.236517e-20
-9.674789e-21
-4.138361e-21
-1.808369e-21
-6.191754e-22
-4.811045e-23
5.773633e-24
5.374008e-24
2.580471e-24
6.940906e-25
4.667130e-27
1.541100e-27
1.665453e-27
1.347941e-27
1.000000e+00
1.000000e+00
1.000000e+00
1.000000e+00
1.000000e+00
1.000000e+00
1.000000e+00
9.999986e-01
9.999950e-01
9.999964e-01
9.999925e-01
9.992707e-01
9.929845e-01
9.724146e-01
9.302282e-01
8.319247e-01
7.228741e-01
5.194905e-01
4.070849e-01
2.222569e-01
1.368078e-01
6.858743e-02
3.015291e-02
1.136006e-02
3.504703e-03
9.759723e-04
4.712838e-04
2.276410e-04
1.149584e-04
3.985877e-05
7.702062e-06
2.135110e-06
1.764730e-06
1.292565e-06
5.762895e-07
1.258191e-07
1.061419e-08
6.638482e-09
2.265211e-09
1.789804e-09
1.631911e-09
1.073127e-09
5.290341e-10
2.600211e-10
9.417384e-11
1.271095e-11
1.778488e-12
1.855879e-12
1.539688e-12
1.001766e-12
4.852987e-13
1.769501e-13
2.349168e-14
-5.360082e-17
9.502339e-16
-3.103180e-16
-1.021282e-16
-5.662469e-17
7.030312e-18
9.473946e-18
3.528185e-18
3.190820e-19
3.167871e-19
1.582580e-19
6.188118e-20
-7.742597e-22
-1.638946e-20
-9.493698e-21
-3.837160e-21
-1.800398e-21
-1.370492e-21
-8.528137e-22
-3.382603e-22
-5.178505e-23
1.448419e-24
2.362916e-24
1.400050e-24
6.438513e-25
2.768636e-25
6.841441e-26
1.000000e+00
1.000000e+00
1.000000e+00
1.000000e+00
1.000000e+00
1.000000e+00
1.000000e+00
1.000000e+00
9.999973e-01
9.999967e-01
9.999970e-01
9.999422e-01
9.989953e-01
9.902045e-01
9.711834e-01
9.210219e-01
8.231800e-01
7.195726e-01
5.218278e-01
4.078248e-01
2.280974e-01
1.366088e-01
6.949792e-02
3.125803e-02
1.174033e-02
3.391687e-03
5.694243e-04
2.136105e-04
1.205389e-04
9.691158e-05
5.474037e-05
1.544081e-05
1.576340e-06
1.053446e-06
9.937922e-07
6.593913e-07
3.276933e-07
1.521551e-07
6.035735e-08
1.072028e-08
1.256417e-09
7.247985e-10
4.615910e-10
2.651786e-10
2.110419e-10
1.293306e-10
6.278078e-11
2.089479e-11
1.745819e-12
1.024163e-12
4.647164e-13
3.716306e-13
2.362775e-13
1.104195e-13
4.941271e-14
2.232845e-14
9.884747e-15
4.339625e-15
1.885190e-15
8.441954e-16
2.620613e-16
9.671779e-18
6.360202e-20
-7.080314e-19
-3.595015e-19
-1.687021e-19
-8.938469e-20
-5.478773e-20
-2.748256e-20
-7.991438e-21
-1.202603e-21
-7.634775e-22
-5.992416e-22
-3.925966e-22
-1.953358e-22
-8.463399e-23
-2.911181e-23
-3.292648e-24
3.569663e-25
2.576519e-25
1.000000e+00
1.000000e+00
1.000000e+00
1.000000e+00
1.000000e+00
1.000000e+00
1.000000e+00
1.000000e+00
9.999995e-01
9.999974e-01
9.999978e-01
9.999745e-01
9.999899e-01
9.975382e-01
9.896937e-01
9.672005e-01
9.135149e-01
8.160596e-01
7.166397e-01
5.214965e-01
4.107660e-01
2.332034e-01
1.463507e-01
7.663569e-02
3.643806e-02
1.522118e-02
5.256361e-03
1.329552e-03
2.947916e-04
1.002173e-04
8.127588e-05
6.101871e-05
2.849686e-05
7.562683e-06
1.071862e-06
4.901660e-07
2.684585e-07
1.547084e-07
1.178259e-07
7.588718e-08
3.662050e-08
1.721483e-08
5.799251e-09
7.018628e-10
1.881518e-10
7.697771e-11
7.020784e-11
5.475555e-11
3.367261e-11
1.310523e-11
2.195503e-12
2.105790e-13
1.163979e-13
7.166361e-14
4.413025e-14
1.183844e-14
8.842179e-15
4.262129e-15
1.617629e-15
8.224435e-16
6.619321e-16
3.872898e-16
1.713042e-16
7.472256e-17
3.210070e-17
1.428852e-17
4.409282e-18
2.353435e-19
-3.700867e-20
-3.106948e-20
-1.813866e-20
-5.868230e-21
-6.211490e-22
-3.086509e-22
-1.330132e-22
-8.576015e-23
-6.199097e-23
-3.698755e-23
-1.763528e-23
-6.499869e-24
1.000000e+00
1.000000e+00
1.000000e+00
1.000000e+00
1.000000e+00
1.000000e+00
1.000000e+00
1.000000e+00
1.000000e+00
9.999986e-01
9.999986e-01
9.999872e-01
9.999906e-01
9.996200e-01
9.969557e-01
9.879770e-01
9.629966e-01
9.062460e-01
8.112590e-01
7.119706e-01
5.210679e-01
4.143810e-01
2.385820e-01
1.469337e-01
7.673643e-02
3.695626e-02
1.603585e-02
5.929384e-03
1.812869e-03
4.347422e-04
8.898768e-05
5.953901e-05
4.700164e-05
3.060635e-05
1.475552e-05
5.739381e-06
2.539102e-06
7.561389e-07
1.270390e-07
7.557832e-08
3.708710e-08
1.757275e-08
1.384419e-08
8.641034e-09
4.192603e-09
1.476864e-09
1.552051e-10
3.765778e-11
3.129813e-11
2.568537e-11
1.647456e-11
7.976994e-12
3.736501e-12
1.739382e-12
7.955318e-13
3.733382e-13
1.684782e-13
7.922457e-14
2.623859e-14
2.723945e-15
6.466267e-17
3.324707e-16
6.151886e-17
4.631003e-17
2.568769e-17
1.427751e-17
1.100958e-17
6.279495e-18
1.730778e-18
-5.692900e-21
-2.039583e-20
-1.719834e-20
-9.981114e-21
-4.750439e-21
-2.036856e-21
-4.428355e-22
-3.981698e-23
-2.643709e-23
-1.729925e-23
-4.550443e-24
1.000000e+00
1.000000e+00
1.000000e+00
1.000000e+00
1.000000e+00
1.000000e+00
1.000000e+00
1.000000e+00
1.000000e+00
9.999994e-01
9.999996e-01
9.999942e-01
9.999927e-01
9.999903e-01
9.993536e-01
9.962202e-01
9.859998e-01
9.586214e-01
8.993175e-01
8.088338e-01
7.067221e-01
5.196912e-01
4.154795e-01
2.429717e-01
1.591159e-01
8.339410e-02
4.027013e-02
1.764691e-02
6.890283e-03
2.328655e-03
6.587715e-04
1.593867e-04
5.801314e-05
3.640226e-05
2.299411e-05
1.078786e-05
4.260219e-06
2.747011e-06
1.509597e-06
7.094540e-07
2.955161e-07
6.764261e-08
1.061622e-08
8.686137e-09
4.593733e-09
3.589057e-09
2.220247e-09
8.601929e-10
1.604690e-10
2.239398e-11
1.311829e-11
4.625920e-12
2.930867e-12
1.545371e-12
4.589453e-13
3.366864e-13
1.291788e-13
7.882876e-14
6.496912e-14
3.908386e-14
1.793607e-14
7.919916e-15
3.625422e-15
1.698052e-15
5.523475e-16
6.649491e-17
6.672685e-18
8.090934e-18
6.164090e-18
3.309241e-18
1.402906e-18
6.152436e-19
1.831924e-19
1.758962e-21
-3.265122e-21
-2.670145e-21
-1.341465e-21
-6.164902e-22
-2.869603e-22
-1.134971e-22
1.000000e+00
1.000000e+00
1.000000e+00
1.000000e+00
1.000000e+00
1.000000e+00
1.000000e+00
1.000000e+00
1.000000e+00
9.999998e-01
9.999998e-01
9.999982e-01
9.999943e-01
9.999962e-01
9.999358e-01
9.991139e-01
9.953249e-01
9.837845e-01
9.547030e-01
8.885156e-01
8.115395e-01
7.049454e-01
5.185059e-01
4.165399e-01
2.444703e-01
1.648966e-01
8.848732e-02
4.339135e-02
1.930776e-02
7.731237e-03
2.730381e-03
8.223097e-04
2.217999e-04
7.357578e-05
4.135438e-05
2.747037e-05
1.303105e-05
3.340728e-06
1.464033e-06
6.969029e-07
5.574999e-07
3.573075e-07
1.889360e-07
6.975355e-08
1.036347e-08
3.205253e-09
2.211017e-09
1.706458e-09
1.080275e-09
5.164339e-10
2.375196e-10
1.109637e-10
5.163890e-11
2.404870e-11
1.148454e-11
5.455240e-12
1.882183e-12
2.229476e-13
5.316473e-14
1.462225e-14
1.627472e-14
4.394084e-15
2.946773e-15
1.676568e-15
1.351462e-15
7.715149e-16
2.125497e-16
1.236215e-17
4.811829e-18
2.390977e-18
1.252562e-18
6.306256e-19
4.834168e-19
2.774875e-19
1.201965e-19
5.009207e-20
2.054871e-20
8.357085e-21
3.402761e-21
1.237819e-21
1.000000e+00
1.000000e+00
1.000000e+00
1.000000e+00
1.000000e+00
1.000000e+00
1.000000e+00
1.000000e+00
1.000000e+00
9.999999e-01
9.999999e-01
9.999999e-01
9.999969e-01
9.999959e-01
9.999952e-01
9.998338e-01
9.989782e-01
9.937388e-01
9.845814e-01
9.402860e-01
8.937610e-01
7.989955e-01
7.032824e-01
5.214632e-01
4.170911e-01
2.477919e-01
1.704454e-01
9.362183e-02
4.703201e-02
2.141196e-02
8.812612e-03
3.220002e-03
1.012884e-03
2.700724e-04
7.248952e-05
3.735034e-05
2.887350e-05
1.914011e-05
9.110360e-06
3.004154e-06
6.132660e-07
3.554738e-07
1.892652e-07
1.537405e-07
9.853325e-08
4.150303e-08
8.843915e-09
1.312743e-09
8.551825e-10
4.164905e-10
2.314361e-10
8.330290e-11
5.139176e-11
2.042497e-11
8.413181e-12
5.265968e-12
4.455738e-12
2.727380e-12
1.258192e-12
5.859885e-13
2.638893e-13
1.279206e-13
4.352299e-14
7.058882e-15
1.094445e-15
1.074180e-15
7.926973e-16
4.059083e-16
1.793480e-16
8.270849e-17
2.643166e-17
1.796458e-18
6.753356e-20
1.365132e-19
1.153454e-19
5.026915e-20
1.773802e-20
8.042964e-21
-4.627062e-23
1.639085e-22
1.000000e+00
1.000000e+00
1.000000e+00
1.000000e+00
1.000000e+00
1.000000e+00
1.000000e+00
1.000000e+00
1.000000e+00
1.000000e+00
9.999999e-01
9.999999e-01
9.999991e-01
9.999969e-01
9.999974e-01
9.999252e-01
9.999286e-01
9.969742e-01
9.968144e-01
9.755270e-01
9.436172e-01
8.871689e-01
7.906944e-01
7.010442e-01
5.219016e-01
4.173624e-01
2.502604e-01
1.743321e-01
9.758291e-02
5.027811e-02
2.345869e-02
9.943944e-03
3.806738e-03
1.287614e-03
3.689848e-04
8.269975e-05
2.988888e-05
1.930741e-05
1.437765e-05
9.715701e-06
5.006057e-06
1.837418e-06
5.109000e-07
1.497135e-07
9.601838e-08
6.991604e-08
4.891825e-08
2.533854e-08
1.202223e-08
5.603078e-09
2.625353e-09
1.252122e-09
5.829495e-10
2.883823e-10
1.078139e-10
1.668761e-11
4.001601e-12
2.184803e-12
1.199941e-12
5.774554e-13
2.662397e-13
1.251270e-13
1.028817e-13
5.687559e-14
1.669824e-14
8.819811e-16
5.600585e-16
3.226656e-16
1.255273e-16
8.159886e-17
6.657217e-17
4.067233e-17
1.830350e-17
8.212668e-18
3.607897e-18
1.628364e-18
7.095923e-19
3.148055e-19
1.394992e-19
5.738640e-20
1.000000e+00
1.000000e+00
1.000000e+00
1.000000e+00
1.000000e+00
1.000000e+00
1.000000e+00
1.000000e+00
1.000000e+00
1.000000e+00
1.000000e+00
1.000000e+00
1.000000e+00
9.999983e-01
9.999993e-01
9.999655e-01
9.999706e-01
9.986373e-01
9.987475e-01
9.924295e-01
9.749065e-01
9.412261e-01
8.823295e-01
7.836635e-01
6.994355e-01
5.244185e-01
4.205750e-01
2.545517e-01
1.789790e-01
1.014014e-01
5.352010e-02
2.546661e-02
1.099280e-02
4.332262e-03
1.564174e-03
5.131981e-04
1.483213e-04
4.481543e-05
1.865080e-05
1.153510e-05
7.694816e-06
4.175058e-06
2.326262e-06
1.138738e-06
4.222606e-07
8.627609e-08
4.789204e-08
2.204277e-08
9.732701e-09
4.765933e-09
2.695561e-09
1.014798e-09
5.869067e-10
2.862043e-10
2.375369e-10
1.451062e-10
6.817740e-11
3.195688e-11
1.507772e-11
7.357689e-12
2.583034e-12
4.587313e-13
1.110405e-13
8.481500e-14
5.882655e-14
3.195760e-14
1.446786e-14
6.881475e-15
2.363994e-15
2.775047e-16
6.674726e-17
3.527611e-17
1.316127e-17
7.682748e-18
3.588806e-18
1.497202e-18
3.589252e-19
2.941661e-19
1.420191e-19
5.361296e-20
1.000000e+00
1.000000e+00
1.000000e+00
1.000000e+00
1.000000e+00
1.000000e+00
1.000000e+00
1.000000e+00
1.000000e+00
1.000000e+00
1.000000e+00
1.000000e+00
1.000000e+00
9.999993e-01
9.999996e-01
9.999848e-01
1.000008e+00
9.993723e-01
9.993766e-01
9.979792e-01
9.905380e-01
9.730834e-01
9.372923e-01
8.797236e-01
7.715265e-01
6.918125e-01
5.232554e-01
4.221649e-01
2.585418e-01
1.839809e-01
1.048175e-01
5.699369e-02
2.782371e-02
1.220026e-02
4.829180e-03
1.743030e-03
5.770290e-04
1.824714e-04
6.030357e-05
2.347800e-05
1.234230e-05
7.618833e-06
3.606266e-06
1.700712e-06
1.137960e-06
6.859109e-07
3.342908e-07
1.706828e-07
8.936381e-08
4.394863e-08
2.158191e-08
1.067928e-08
4.401655e-09
9.866501e-10
2.556403e-10
1.261557e-10
6.822404e-11
2.458999e-11
1.336249e-11
7.438805e-12
6.030359e-12
3.332306e-12
9.898412e-13
6.993596e-14
4.133633e-14
2.910786e-14
1.023976e-14
6.604646e-15
5.684560e-15
3.441595e-15
1.591543e-15
7.054179e-16
3.225871e-16
1.503685e-16
6.914461e-17
3.121300e-17
1.414256e-17
6.734507e-18
2.288340e-18
3.486519e-19
1.000000e+00
1.000000e+00
1.000000e+00
1.000000e+00
1.000000e+00
1.000000e+00
1.000000e+00
1.000000e+00
1.000000e+00
1.000000e+00
1.000000e+00
1.000000e+00
1.000000e+00
9.999997e-01
9.999998e-01
9.999932e-01
1.000002e+00
9.997672e-01
9.995481e-01
9.994633e-01
9.969935e-01
9.892813e-01
9.704853e-01
9.338302e-01
8.783149e-01
7.662125e-01
6.869264e-01
5.219699e-01
4.232751e-01
2.619417e-01
1.899238e-01
1.067559e-01
5.990710e-02
3.035150e-02
1.379263e-02
5.614206e-03
2.049251e-03
6.791928e-04
2.141298e-04
7.140716e-05
2.695705e-05
1.346970e-05
9.717121e-06
4.400205e-06
1.382510e-06
6.966741e-07
3.288603e-07
1.730588e-07
7.902068e-08
3.770535e-08
1.981202e-08
1.051256e-08
8.596430e-09
5.491102e-09
2.743166e-09
1.295346e-09
6.300412e-10
3.183000e-10
1.143236e-10
2.498693e-11
6.281215e-12
5.081744e-12
3.564788e-12
1.938437e-12
8.931043e-13
4.364153e-13
1.572571e-13
2.133628e-14
4.672769e-15
1.452475e-15
1.428763e-15
6.820429e-16
2.334861e-16
5.812808e-17
4.195261e-17
2.761993e-17
9.560081e-18
6.350179e-18
5.482811e-18
2.768470e-18
1.000000e+00
1.000000e+00
1.000000e+00
1.000000e+00
1.000000e+00
1.000000e+00
1.000000e+00