# vtk DataFile Version 3.0
MUSCL
ASCII
DATASET STRUCTURED_POINTS
DIMENSIONS 80 80 1
ORIGIN 0 0 0
SPACING 0.0125 0.0125 1
POINT_DATA 6400
SCALARS Temperature double 1
LOOKUP_TABLE default
0.000000e+00
-6.739981e-01
-1.939418e-01
-2.456823e-02
-3.506640e-04
3.259032e-05
1.841646e-06
-4.438112e-07
-2.492048e-07
-9.651953e-08
-4.285766e-08
-1.979549e-08
-8.958249e-09
-3.985622e-09
-1.738044e-09
-6.211974e-10
-1.246584e-11
-2.863523e-13
5.854310e-13
3.006094e-13
2.508000e-14
1.001455e-14
1.226635e-14
1.047412e-14
5.268243e-15
2.356591e-15
9.400986e-16
3.437003e-16
1.187728e-16
4.126624e-17
1.606515e-17
3.860271e-18
2.113883e-20
-2.937577e-21
4.656126e-22
3.617048e-22
1.504037e-22
6.502337e-23
3.475870e-23
2.004397e-23
7.481797e-24
2.167847e-24
3.720651e-26
-1.708278e-26
-1.951141e-26
-2.059463e-26
-2.588957e-26
-4.071166e-26
-3.865041e-26
-2.232278e-26
-1.190518e-26
-6.146410e-27
-2.293648e-27
-1.181767e-28
1.968796e-29
7.694268e-30
2.825514e-30
1.129035e-30
4.068857e-31
1.335840e-31
4.153841e-32
1.248000e-32
3.647620e-33
8.956096e-34
8.101187e-35
1.647155e-35
-6.255132e-37
-2.842637e-37
-1.457848e-37
-8.249570e-38
-5.147650e-38
-3.282812e-38
-2.040484e-38
-1.218376e-38
-6.873146e-39
-4.087970e-39
-8.973200e-40
3.323860e-41
6.751309e-42
6.802735e-42
1.326002e+00
6.739981e-01
1.939418e-01
2.456823e-02
3.506640e-04
-3.259032e-05
-1.841646e-06
4.438112e-07
2.492048e-07
9.651953e-08
4.285766e-08
1.979549e-08
8.958249e-09
3.985622e-09
1.738044e-09
6.211974e-10
1.246584e-11
2.863523e-13
-5.854310e-13
-3.006094e-13
-2.508000e-14
-1.001455e-14
-1.226635e-14
-1.047412e-14
-5.268243e-15
-2.356591e-15
-9.400986e-16
-3.437003e-16
-1.187728e-16
-4.126624e-17
-1.606515e-17
-3.860271e-18
-2.113883e-20
2.937577e-21
-4.656126e-22
-3.617048e-22
-1.504037e-22
-6.502337e-23
-3.475870e-23
-2.004397e-23
-7.481797e-24
-2.167847e-24
-3.720651e-26
1.708278e-26
1.951141e-26
2.059463e-26
2.588957e-26
4.071166e-26
3.865041e-26
2.232278e-26
1.190518e-26
6.146410e-27
2.293648e-27
1.181767e-28
-1.968796e-29
-7.694268e-30
-2.825514e-30
-1.129035e-30
-4.068857e-31
-1.335840e-31
-4.153841e-32
-1.248000e-32
-3.647620e-33
-8.956096e-34
-8.101187e-35
-1.647155e-35
6.255132e-37
2.842637e-37
1.457848e-37
8.249570e-38
5.147650e-38
3.282812e-38
2.040484e-38
1.218376e-38
6.873146e-39
4.087970e-39
8.973200e-40
-3.323860e-41
-6.751309e-42
-6.802735e-42
1.041962e+00
9.580378e-01
5.985715e-01
2.398016e-01
5.878507e-02
3.859943e-03
1.253271e-04
-4.178077e-05
-2.604294e-05
-1.215028e-05
-5.347759e-06
-2.295018e-06
-9.606434e-07
-2.569666e-07
2.851456e-09
7.677420e-10
7.653336e-10
3.300220e-10
2.453796e-11
-6.146294e-15
-5.333606e-15
-4.963597e-15
-1.152728e-14
-7.120262e-15
3.030489e-15
6.295106e-15
4.270313e-15
1.660294e-15
3.569790e-16
-3.712869e-17
-1.807476e-17
-1.183061e-17
-6.507629e-18
-1.283813e-18
2.280096e-20
2.680703e-20
1.486019e-20
7.421594e-21
4.268630e-21
1.418956e-21
8.208358e-24
-5.173467e-24
-4.501838e-24
-3.017171e-24
-2.224397e-24
-2.191568e-24
-2.912275e-24
-3.828578e-24
-3.394388e-24
-1.893407e-24
-1.027153e-24
-3.127873e-25
2.452924e-27
2.369301e-27
1.576444e-27
6.994136e-28
2.814475e-28
1.050786e-28
3.654827e-29
1.192806e-29
3.699697e-30
9.236903e-31
4.440616e-32
-1.357717e-34
-2.491341e-33
-6.401040e-34
-1.358112e-34
-4.223877e-35
-1.833706e-35
-9.295003e-36
-5.074306e-36
-2.888904e-36
-1.660046e-36
-9.651064e-37
-4.119794e-37
-2.995707e-38
8.000914e-39
3.468585e-39
1.531717e-39
9.743877e-40
1.000576e+00
9.994239e-01
8.851444e-01
5.932010e-01
2.706226e-01
8.395879e-02
1.633512e-02
1.267531e-03
4.836209e-04
2.023204e-04
7.233227e-05
8.300038e-06
-1.105369e-06
-8.621016e-07
-4.804078e-07
-1.724645e-07
-1.681783e-08
6.139566e-10
4.734375e-10
6.465657e-11
-5.345256e-12
-1.479572e-12
-8.142436e-13
-4.123534e-13
-1.621169e-13
-5.515506e-14
-6.049814e-15
1.694358e-15
1.845404e-15
1.020939e-15
3.986048e-16
9.784871e-17
5.047453e-18
-1.675318e-18
-4.125486e-18
-2.967567e-18
-1.507979e-18
-7.945004e-19
-1.987481e-19
2.719506e-21
2.573498e-21
1.715975e-21
8.709984e-22
4.194709e-22
1.928697e-22
8.241852e-23
2.599723e-23
3.398168e-24
-2.060745e-24
-2.911285e-25
-5.008441e-25
-5.982411e-25
-5.403676e-25
-2.622181e-25
-1.160996e-25
-4.773922e-26
-1.841421e-26
-6.774882e-27
-2.464699e-27
-6.074148e-28
-6.562131e-29
5.700760e-30
1.856920e-30
6.169291e-31
1.527935e-31
3.745560e-32
1.010342e-32
3.276318e-33
1.335621e-33
6.559525e-34
3.553350e-34
2.089476e-34
1.096192e-34
2.557448e-35
-2.349707e-37
-6.451011e-37
-4.542910e-37
-2.411949e-37
-1.258472e-37
-6.727313e-38
9.999021e-01
1.000098e+00
9.863058e-01
8.523388e-01
5.808488e-01
2.961031e-01
9.879720e-02
2.188119e-02
6.289907e-04
1.834155e-04
1.338201e-04
8.818949e-05
4.029289e-05
7.944866e-06
-5.532967e-07
-3.599904e-07
-2.346812e-07
-6.632558e-08
4.913118e-10
6.207645e-10
4.143413e-10
1.750221e-10
7.389735e-11
3.209090e-11
1.176366e-11
1.340432e-12
-4.602515e-15
-1.940801e-14
-8.400672e-15
-1.394618e-15
4.417143e-16
2.925441e-16
1.296041e-16
3.946595e-17
1.624725e-17
1.008843e-17
4.988636e-18
-1.982232e-19
-5.166196e-19
-4.500687e-19
-2.247896e-19
-1.085942e-19
-5.076245e-20
-2.325140e-20
-1.049412e-20
-4.668575e-21
-2.054362e-21
-8.789708e-22
-3.552113e-22
-1.315162e-22
-2.643296e-23
6.828789e-25
-3.354990e-25
-1.808559e-25
-8.491791e-26
-4.372322e-26
7.349520e-27
-3.495333e-27
-2.926413e-27
-1.786099e-27
-8.679418e-28
-3.243672e-28
-1.025705e-28
-3.152923e-29
-8.985441e-30
-2.004255e-30
-6.805648e-31
-2.313774e-31
-8.830411e-32
-3.922404e-32
-2.111203e-32
-7.994442e-33
1.086488e-34
1.085525e-34
9.076950e-35
4.878950e-35
2.589567e-35
1.422849e-35
5.533484e-36
7.650945e-37
9.999710e-01
1.000029e+00
9.999654e-01
9.648308e-01
8.295334e-01
5.645867e-01
3.365980e-01
1.267410e-01
3.476954e-02
2.566758e-03
-9.363644e-05
6.802320e-05
6.086919e-05
4.360546e-05
1.792621e-05
2.746117e-06
-1.650541e-07
-1.983841e-07
-1.178578e-07
-5.177100e-08
-2.264222e-08
-1.003501e-08
-3.643205e-09
-2.764834e-10
1.849479e-11
1.414894e-11
5.116426e-12
6.957479e-13
-1.367596e-14
-8.644146e-15
-5.725024e-15
-4.150759e-15
-2.119706e-15
-9.879902e-16
-4.173414e-16
-1.074569e-16
3.041861e-18
4.667863e-18
4.558257e-18
2.794275e-18
1.503126e-18
7.601894e-19
3.657118e-19
1.687107e-19
6.129191e-20
1.257145e-20
-1.503720e-21
-9.986039e-22
-6.235606e-22
-3.425038e-22
-1.757964e-22
-7.224576e-23
-2.913228e-23
-1.207228e-23
-4.980353e-24
-1.991165e-24
-7.952558e-25
-1.950004e-25
-2.064366e-27
-1.621748e-27
-3.206090e-28
7.494007e-29
6.453297e-29
-2.147106e-29
-1.577705e-29
-7.945998e-30
7.899022e-31
1.919915e-30
1.097994e-30
3.604735e-31
3.385355e-32
-8.979782e-33
-1.248750e-32
-8.493513e-33
-4.295899e-33
-2.306856e-33
-1.310547e-33
-3.722760e-34
3.533893e-36
3.816713e-36
9.999947e-01
1.000005e+00
1.000032e+00
9.983803e-01
9.484775e-01
8.111281e-01
5.427401e-01
3.577057e-01
1.479304e-01
5.008466e-02
9.805902e-03
8.174971e-05
-2.573818e-05
4.072203e-05
3.565477e-05
2.234523e-05
1.085256e-05
4.621146e-06
1.961936e-06
8.000438e-07
1.653168e-07
-9.150553e-09
-7.424846e-09
-4.957688e-09
-1.404679e-09
6.423858e-13
1.418253e-11
1.052847e-11
4.354719e-12
1.770485e-12
7.702211e-13
3.486230e-13
1.333404e-13
4.827183e-14
5.730123e-15
-7.118878e-16
-1.716004e-16
-7.701566e-17
-3.284714e-17
-1.222420e-17
-3.293788e-18
-3.403976e-19
2.425917e-19
1.336532e-19
1.127546e-19
7.276183e-20
3.824782e-20
1.507747e-20
5.242878e-21
1.511980e-21
2.878046e-22
-5.945827e-24
-1.182073e-23
-1.088715e-23
-1.948822e-24
-2.569781e-24
-1.336913e-24
-7.182024e-25
-3.398322e-25
-1.301519e-25
-5.393095e-26
-1.653625e-26
-3.505814e-28
1.544986e-29
1.165819e-28
8.572435e-29
-3.976125e-29
-8.512639e-29
-3.801080e-29
-5.560707e-31
2.513836e-31
1.610851e-31
6.836049e-32
2.534183e-32
7.626089e-33
9.520995e-34
-8.485962e-34
-9.311247e-34
-8.152800e-34
-4.165690e-34
9.999989e-01
1.000001e+00
1.000006e+00
1.000075e+00
9.920027e-01
9.348483e-01
7.949514e-01
5.168291e-01
3.729447e-01
1.555941e-01
5.836218e-02
1.607882e-02
2.179596e-03
9.211061e-05
3.427425e-05
2.243718e-05
1.082937e-05
4.439194e-06
1.931802e-06
1.009484e-06
7.530432e-07
3.321663e-07
4.787660e-08
-5.360220e-09
-4.383075e-09
-2.582265e-09
-1.123685e-09
-4.874911e-10
-2.112678e-10
-9.303940e-11
-3.392663e-11
-6.420967e-12
1.777486e-13
1.425713e-13
8.131427e-14
3.726387e-14
1.567498e-14
6.806638e-15
3.053231e-15
1.397984e-15
6.479920e-16
2.790797e-16
7.502011e-17
-5.101946e-20
-1.782409e-18
-2.187421e-19
-5.590611e-20
-1.738840e-20
-8.552372e-21
-5.564077e-21
-3.468601e-21
-1.916055e-21
-9.785680e-22
-3.977744e-22
-8.677803e-23
-4.580799e-24
-1.080785e-24
-1.447476e-25
1.565471e-25
8.123740e-26
-8.663166e-27
-2.297160e-26
-2.102628e-26
-6.493653e-27
-1.800712e-27
8.965341e-29
-2.781440e-29
-7.327691e-29
-9.916481e-29
-8.368365e-29
-4.069522e-29
-1.964614e-29
-9.182461e-30
-4.189417e-30
-1.765824e-30
-5.288055e-31
-8.636648e-34
3.263801e-33
2.016717e-33
2.369088e-34
9.999991e-01
1.000001e+00
1.000001e+00
1.000029e+00
1.000024e+00
9.847374e-01
9.217279e-01
7.794567e-01
5.212301e-01
3.784358e-01
1.649403e-01
6.672941e-02
2.052774e-02
4.249796e-03
3.771916e-04
8.307891e-05
4.732462e-05
2.596001e-05
9.582764e-06
2.221570e-06
7.626530e-07
6.319520e-07
4.098990e-07
1.980201e-07
8.466418e-08
3.496445e-08
1.428234e-08
6.142907e-09
1.759229e-09
-8.081816e-11
-6.819894e-11
-4.187955e-11
-2.080909e-11
-9.015139e-12
-3.850542e-12
-1.639995e-12
-6.993167e-13
-2.979465e-13
-1.297296e-13
-4.863939e-14
-6.813045e-15
5.328326e-16
2.682104e-16
1.484975e-16
4.536484e-17
7.277512e-18
1.925775e-20
-3.151792e-20
2.876404e-19
2.188930e-19
1.040251e-19
3.466758e-20
-5.946687e-22
-6.890267e-22
-5.309627e-22
-2.647717e-22
-1.159072e-22
-5.195369e-23
-1.504756e-23
-2.803763e-25
8.045392e-26
-8.999201e-27
-2.535972e-26
-2.324475e-26
-1.404297e-26
-7.212997e-27
-4.470026e-27
-5.801383e-28
-2.261426e-29
1.673430e-29
-7.630417e-30
-1.758000e-29
-7.101885e-30
-4.197005e-30
-2.887417e-30
-1.808642e-30
-9.697370e-31
-3.865502e-31
-1.575005e-31
-7.434141e-32
9.999996e-01
1.000000e+00
1.000000e+00
1.000010e+00
1.000013e+00
9.988833e-01
9.786406e-01
9.079517e-01
7.697900e-01
5.221284e-01
3.810383e-01
1.771934e-01
7.568406e-02
2.533778e-02
5.882077e-03
4.455968e-04
2.348294e-05
3.139301e-05
2.559658e-05
1.400239e-05
4.088142e-06
6.941192e-07
3.759756e-07
2.137126e-07
8.677153e-08
3.502477e-08
1.420611e-08
6.026710e-09
4.835760e-09
2.805915e-09
1.211468e-09
5.107117e-10
2.110508e-10
8.608628e-11
3.468867e-11
1.372824e-11
5.590476e-12
1.535728e-12
-8.165948e-14
-8.173548e-14
-5.697272e-14
-2.324436e-14
-2.963365e-15
9.455706e-17
1.332685e-16
7.334358e-17
2.343276e-17
1.245997e-18
-8.761096e-20
6.097692e-20
7.476167e-20
6.752932e-20
5.046183e-20
2.281410e-20
9.528524e-21
3.482369e-21
6.513180e-22
-5.757132e-23
-4.064505e-23
-2.682102e-23
-6.856941e-24
-1.935514e-26
1.494177e-25
4.297015e-26
5.951596e-27
-4.989193e-27
-5.363792e-27
-5.722722e-27
-5.556770e-27
-3.604770e-27
-2.069487e-27
-1.110289e-27
-4.456727e-28
-7.483781e-29
2.042473e-30
-7.908552e-31
-4.378116e-31
-3.688494e-32
-1.480226e-32
-2.514380e-32
9.999998e-01
1.000000e+00
1.000000e+00
1.000001e+00
1.000012e+00
9.999912e-01
9.972003e-01
9.709942e-01
8.969399e-01
7.615561e-01
5.236610e-01
3.740834e-01
1.874592e-01
8.574840e-02
3.194522e-02
8.893227e-03
1.252568e-03
5.709480e-05
2.506283e-05
2.161494e-05
1.576228e-05
6.914352e-06
1.909047e-06
6.307390e-07
3.855603e-07
2.177745e-07
9.367891e-08
2.433073e-08
5.047670e-09
2.013652e-09
1.190958e-09
3.412062e-10
1.991493e-10
3.845018e-11
1.302931e-11
9.114563e-12
5.207470e-12
4.047041e-12
2.256391e-12
5.116673e-13
-5.846780e-14
-4.601270e-14
-3.051412e-14
-1.247675e-14
-1.505910e-15
1.764928e-16
7.948305e-17
4.339650e-17
1.729059e-17
7.124375e-18
1.579497e-18
4.589473e-20
3.658478e-20
2.106867e-20
1.169001e-20
6.642381e-21
3.624661e-21
1.652210e-21
2.891590e-22
-2.983973e-23
-2.229998e-23
-1.407103e-23
-6.580679e-24
-2.011284e-24
-8.864816e-26
-3.545078e-27
3.653092e-28
-4.459931e-27
-3.589435e-27
-3.205534e-27
-1.895753e-27
-8.652601e-28
-8.501016e-28
-6.102920e-28
-2.859802e-28
-1.272469e-28
-5.405418e-29
-2.314842e-29
-7.247301e-30
-1.926733e-31
9.999999e-01
1.000000e+00
1.000000e+00
9.999999e-01
1.000007e+00
1.000008e+00
9.999912e-01
9.941675e-01
9.638714e-01
8.861518e-01
7.589014e-01
5.119047e-01
3.893248e-01
1.920799e-01
9.236968e-02
3.720153e-02
1.170260e-02
2.347263e-03
7.125030e-05
2.251008e-05
1.723686e-05
1.295817e-05
7.025235e-06
2.008071e-06
3.764813e-07
2.217699e-07
1.712785e-07
1.128153e-07
5.947732e-08
2.863445e-08
1.367452e-08
6.574909e-09
3.046122e-09
1.428155e-09
6.833355e-10
2.215000e-10
2.782162e-11
2.609909e-12
2.921095e-12
2.136352e-12
1.065981e-12
2.036789e-13
-2.708002e-14
-2.541065e-14
-1.627865e-14
-7.829751e-15
-3.386777e-15
-8.775108e-16
1.065944e-17
8.170856e-18
6.011874e-18
3.016086e-18
1.109393e-18
2.754251e-19
-6.171119e-22
-8.564529e-22
2.321667e-21
2.290388e-21
1.438678e-21
6.953004e-22
2.942420e-22
6.674813e-23
-6.247633e-24
-5.449036e-24
-3.720278e-24
-1.864560e-24
-8.914732e-25
-4.055928e-25
-1.825101e-25
-8.616599e-26
-4.249341e-26
-1.239700e-26
-1.027548e-27
-4.372544e-28
-2.158173e-28
-1.068552e-28
-3.172434e-29
-2.270788e-29
-1.663633e-29
-1.036254e-29
1.000000e+00
1.000000e+00
1.000000e+00
1.000000e+00
1.000002e+00
1.000005e+00
1.000008e+00
9.997501e-01
9.914615e-01
9.548755e-01
8.817951e-01
7.454443e-01
5.159357e-01
3.938131e-01
1.986386e-01
9.891951e-02
4.200711e-02
1.456290e-02
3.651860e-03
3.629542e-04
2.561649e-05
1.659107e-05
1.291495e-05
9.428172e-06
4.074274e-06
9.492870e-07
1.757861e-07
7.744252e-08
4.028460e-08
2.822119e-08
1.310402e-08
5.038580e-09
2.521759e-09
1.331085e-09
6.937182e-10
5.463215e-10
3.023234e-10
7.896299e-11
2.715836e-12
1.126248e-12
1.409985e-12
1.067443e-12
5.462500e-13
2.394281e-13
7.611102e-14
-3.114430e-15
-3.658372e-15
-3.069348e-15
-1.669133e-15
-7.177840e-16
-2.415767e-16
-2.811515e-17
8.538452e-19
1.377251e-18
7.759000e-19
3.096987e-19
3.626443e-20
1.251908e-21
5.907835e-22
4.514120e-22
3.367794e-22
2.283754e-22
1.390204e-22
6.710712e-23
3.061147e-23
1.288200e-23
4.795323e-24
1.450874e-24
2.693322e-25
-2.666562e-26
-4.201918e-26
-3.463167e-26
-2.209726e-26
-1.146490e-26
-5.468422e-27
-2.511168e-27
-9.136943e-28
-9.838508e-29
-1.243921e-29
-9.933478e-30
1.000000e+00
1.000000e+00
1.000000e+00
1.000000e+00
1.000000e+00
1.000002e+00
1.000007e+00
9.999045e-01
9.998786e-01
9.863723e-01
9.508847e-01
8.715981e-01
7.385070e-01
5.161879e-01
3.972181e-01
2.052065e-01
1.052192e-01
4.641251e-02
1.748063e-02
5.031492e-03
6.185314e-04
8.576181e-06
6.637293e-06
8.647587e-06
7.724689e-06
5.106965e-06
2.554420e-06
1.177013e-06
5.542466e-07
2.672532e-07
1.302560e-07
6.434475e-08
3.216611e-08
1.141936e-08
2.099764e-09
5.235925e-10
4.350961e-10
3.208738e-10
1.493626e-10
3.316414e-11
1.724404e-12
5.656676e-13
4.491431e-13
1.948845e-13
1.799388e-13
1.124088e-13
5.063954e-14
2.266228e-14
5.986466e-15
-6.263109e-16
-5.292883e-16
-3.226620e-16
-1.629649e-16
-4.491238e-17
5.427225e-19
4.072910e-19
3.295383e-19
1.537958e-19
5.564807e-20
5.990415e-21
-1.021417e-23
1.061943e-22
1.223624e-22
-2.582524e-23
-2.040374e-23
-5.073262e-24
-2.710960e-25
5.977642e-26
-6.113986e-25
-6.229521e-25
-2.128139e-25
-3.275978e-26
-2.184203e-26
-7.109482e-27
-5.240336e-27
-2.975357e-27
-2.023400e-27
-1.263128e-27
-3.990972e-28
-6.129700e-29
1.000000e+00
1.000000e+00
1.000000e+00
1.000000e+00
1.000000e+00
1.000000e+00
1.000004e+00
9.999620e-01
1.000056e+00
9.976436e-01
9.838892e-01
9.447455e-01
8.635351e-01
7.326955e-01
5.157948e-01
4.002322e-01
2.116027e-01
1.117279e-01
5.058106e-02
2.041726e-02
7.050306e-03
1.705729e-03
2.187006e-04
6.076876e-06
2.852282e-06
9.053375e-07
9.869906e-07
8.616899e-07
1.735304e-07
1.100982e-07
1.111743e-07
6.042845e-08
3.125040e-08
2.606813e-08
1.537432e-08
4.773147e-09
5.033191e-10
2.788514e-10
2.376493e-10
1.606885e-10
7.909816e-11
3.689133e-11
1.341848e-11
1.868050e-12
1.389179e-13
8.064315e-14
2.727344e-14
2.248546e-14
1.803562e-14
1.087924e-14
3.753110e-15
2.044897e-16
-1.572540e-16
-1.422034e-16
-8.009711e-17
-3.483407e-17
-9.385384e-18
1.583690e-19
9.078204e-20
7.157468e-20
3.404399e-20
1.520399e-20
6.853692e-21
3.172991e-21
1.448985e-21
6.414102e-22
2.804075e-22
1.072803e-22
1.664109e-23
-3.215628e-25
-7.232071e-25
-5.135867e-25
-2.645606e-25
-1.346146e-25
-4.475362e-26
-4.891229e-27
-2.019822e-27
-1.267568e-27
-9.952792e-28
-4.527536e-28
1.000000e+00
1.000000e+00
1.000000e+00
1.000000e+00
1.000000e+00
1.000000e+00
1.000002e+00
9.999848e-01
9.999902e-01
9.999540e-01
9.962619e-01
9.802795e-01
9.387402e-01
8.559705e-01
7.277018e-01
5.150185e-01
4.022979e-01
2.167284e-01
1.189870e-01
5.370638e-02
2.139150e-02
7.335098e-03
2.225087e-03
7.226450e-04
3.155638e-04
1.393489e-04
6.186781e-05
2.752524e-05
1.241404e-05
5.615979e-06
2.651048e-06
8.592558e-07
1.088455e-07
2.602947e-08
2.063802e-08
1.577718e-08
8.211654e-09
2.130860e-09
2.213079e-10
1.592006e-10
6.357529e-11
3.382252e-11
2.786589e-11
1.751167e-11
8.212272e-12
3.880712e-12
1.377111e-12
1.156316e-13
3.173249e-15
8.835179e-15
7.754152e-15
4.830146e-15
2.387806e-15
7.782122e-16
1.064034e-17
-4.023774e-17
-3.089040e-17
-1.690405e-17
-7.310159e-18
-3.114773e-18
-1.324958e-18
-5.631662e-19
-2.391831e-19
-1.009403e-19
-4.404035e-20
-1.607056e-20
-1.661831e-21
2.364670e-22
1.156400e-22
5.508175e-23
2.124337e-23
7.416810e-24
1.048693e-24
-1.072935e-25
-1.166032e-25
-7.345572e-26
-2.411186e-26
-3.135086e-27
-9.488956e-28
-4.577478e-28
1.000000e+00
1.000000e+00
1.000000e+00
1.000000e+00
1.000000e+00
1.000000e+00
1.000001e+00
9.999937e-01
9.999927e-01
1.000001e+00
9.996798e-01
9.948052e-01
9.764595e-01
9.335282e-01
8.476604e-01
7.250321e-01
5.158485e-01
4.044589e-01
2.192119e-01
1.311418e-01
6.149327e-02
2.461157e-02
8.062275e-03
1.883273e-03
2.946485e-04
1.416310e-04
5.111078e-05
2.792762e-05
1.013399e-05
4.506066e-06
2.638747e-06
2.189315e-06
1.221020e-06
3.089186e-07
1.519008e-08
1.543741e-08
1.208244e-08
8.679717e-09
4.425347e-09
2.071972e-09
8.190871e-10
1.665224e-10
2.304277e-11
9.252010e-12
6.083074e-12
3.768493e-12
3.029779e-12
1.918929e-12
7.836238e-13
1.447800e-13
1.027718e-14
3.399372e-15
2.142012e-15
1.719608e-15
1.061278e-15
4.912178e-16
2.001823e-16
7.755761e-17
2.914998e-17
1.052727e-17
3.587840e-18
1.112066e-18
2.884990e-19
4.065892e-20
-3.205146e-20
-2.962077e-20
-1.881385e-20
-8.890640e-21
-3.866710e-21
-1.362928e-21
-1.224855e-22
1.129134e-23
9.037612e-24
3.993858e-24
6.086814e-25
-9.557604e-26
-6.089142e-26
-3.626209e-26
-1.548322e-26
-6.434475e-27
1.000000e+00
1.000000e+00
1.000000e+00
1.000000e+00
1.000000e+00
1.000000e+00
1.000000e+00
9.999985e-01
9.999947e-01
9.999960e-01
9.999952e-01
9.992715e-01
9.930110e-01
9.724435e-01
9.302477e-01
8.319414e-01
7.228902e-01
5.195123e-01
4.071128e-01
2.222691e-01
1.367887e-01
6.854838e-02
3.012239e-02
1.133585e-02
3.470090e-03
9.807940e-04
4.685256e-04
2.282470e-04
1.145960e-04
4.109182e-05
7.908953e-06
2.030888e-06
1.806183e-06
1.351059e-06
6.067110e-07
1.279833e-07
1.092340e-08
7.396530e-09
2.302581e-09
2.047951e-09
1.610293e-09
1.015475e-09
4.985964e-10
2.443116e-10
9.592566e-11
1.722494e-11
1.620011e-12
1.783146e-12
1.342381e-12
9.077188e-13
4.570009e-13
1.635758e-13
1.965580e-14
2.501812e-16
8.792913e-16
3.311260e-16
-2.133220e-17
-1.848604e-17
-2.151708e-17
-1.424010e-17
-5.579528e-18
-1.852583e-18
1.710198e-21
4.883649e-20
3.079087e-20
-1.430006e-20
-1.849438e-20
-8.534515e-21
-3.929442e-21
-2.894195e-21
-1.835379e-21
-6.835046e-22
-8.291969e-23
1.245958e-24
4.401339e-24
2.489588e-24
1.098106e-24
4.877024e-25
1.924198e-25
5.502763e-26
1.000000e+00
1.000000e+00
1.000000e+00
1.000000e+00
1.000000e+00
1.000000e+00
1.000000e+00
1.000000e+00
9.999973e-01
9.999961e-01
9.999974e-01
9.999437e-01
9.990079e-01
9.902338e-01
9.712151e-01
9.210506e-01
8.232110e-01
7.196132e-01
5.218692e-01
4.078564e-01
2.280883e-01
1.365682e-01
6.945134e-02
3.121310e-02
1.173321e-02
3.380644e-03
5.589934e-04
2.203868e-04
1.188455e-04
9.691464e-05
5.436429e-05
1.541830e-05
1.699748e-06
1.345392e-06
1.046648e-06
6.919524e-07
3.442133e-07
1.659957e-07
6.593213e-08
1.170705e-08
7.662168e-10
7.115681e-10
4.365257e-10
2.296164e-10
1.857151e-10
1.180793e-10
6.042919e-11
2.059606e-11
1.890705e-12
6.956403e-13
4.183165e-13
3.495828e-13
2.233117e-13
1.041646e-13
4.675910e-14
2.120248e-14
9.492762e-15
4.204125e-15
1.841500e-15
8.321628e-16
2.559957e-16
1.041743e-17
-1.535401e-18
-9.094990e-19
-3.977843e-19
-2.146072e-19
-1.240777e-19
-6.550283e-20
-1.977318e-20
-2.804523e-21
-1.832881e-21
-1.468739e-21
-9.039857e-22
-4.409256e-22
-1.886947e-22
-8.222234e-23
-3.114827e-23
-4.807441e-24
2.325447e-25
1.672210e-25
1.000000e+00
1.000000e+00
1.000000e+00
1.000000e+00
1.000000e+00
1.000000e+00
1.000000e+00
1.000000e+00
9.999995e-01
9.999971e-01
9.999972e-01
9.999756e-01
9.999927e-01
9.975573e-01
9.897119e-01
9.672225e-01
9.135462e-01
8.161060e-01
7.166960e-01
5.215435e-01
4.107875e-01
2.331794e-01
1.463036e-01
7.658656e-02
3.641957e-02
1.520341e-02
5.238802e-03
1.311350e-03
2.922225e-04
1.000681e-04
8.222530e-05
6.118162e-05
2.846021e-05
7.558001e-06
1.010155e-06
6.780160e-07
3.418441e-07
1.558856e-07
1.279119e-07
8.018567e-08
3.838430e-08
1.749079e-08
6.481336e-09
1.095955e-09
1.282018e-10
1.182808e-10
6.470300e-11
4.941972e-11
3.095390e-11
1.198930e-11
1.998594e-12
3.489545e-13
1.413781e-13
1.004170e-13
1.785539e-14
1.592902e-14
9.682992e-15
3.433850e-15
1.836651e-15
8.506545e-16
6.698271e-16
3.941215e-16
1.758638e-16
7.461754e-17
3.200813e-17
1.135366e-17
8.589004e-19
-1.401074e-19
-7.590545e-20
-3.327750e-20
-5.035901e-21
-1.227027e-21
-4.445852e-22
-2.590808e-22
-1.447740e-22
-7.385820e-23
-5.333822e-23
-3.516374e-23
-1.786716e-23
-6.885064e-24
1.000000e+00
1.000000e+00
1.000000e+00
1.000000e+00
1.000000e+00
1.000000e+00
1.000000e+00
1.000000e+00
1.000000e+00
9.999985e-01
9.999985e-01
9.999874e-01
9.999924e-01
9.996198e-01
9.969585e-01
9.879914e-01
9.630235e-01
9.062859e-01
8.113075e-01
7.120212e-01
5.211008e-01
4.143846e-01
2.385475e-01
1.468921e-01
7.670868e-02
3.693382e-02
1.601588e-02
5.919004e-03
1.810293e-03
4.339899e-04
8.998229e-05
6.185506e-05
4.651565e-05
3.100904e-05
1.480710e-05
5.862219e-06
2.627870e-06
8.173621e-07
1.368665e-07
5.726897e-08
3.677649e-08
1.765465e-08
1.388128e-08
8.599992e-09
4.241127e-09
1.541974e-09
1.652605e-10
2.517321e-11
2.735530e-11
2.414623e-11
1.557478e-11
7.460157e-12
3.412393e-12
1.610077e-12
7.723322e-13
3.504388e-13
1.665048e-13
7.714050e-14
2.581559e-14
2.635114e-15
5.450244e-16
2.958863e-16
6.064546e-17
3.620742e-17
2.973309e-17
2.297272e-17
1.551962e-17
4.712917e-18
8.078299e-20
-6.591529e-20
-5.217252e-20
-2.482298e-20
-1.178542e-20
-5.484390e-21
-2.494441e-21
-7.411291e-22
-5.890981e-23
-3.571852e-23
-8.551093e-24
-5.926227e-24
1.000000e+00
1.000000e+00
1.000000e+00
1.000000e+00
1.000000e+00
1.000000e+00
1.000000e+00
1.000000e+00
1.000000e+00
9.999994e-01
9.999994e-01
9.999940e-01
9.999928e-01
9.999854e-01
9.993586e-01
9.962260e-01
9.860174e-01
9.586534e-01
8.993595e-01
8.088722e-01
7.067529e-01
5.196923e-01
4.154605e-01
2.429372e-01
1.590947e-01
8.337676e-02
4.025642e-02
1.764023e-02
6.888724e-03
2.328041e-03
6.585280e-04
1.602219e-04
5.759189e-05
3.633922e-05
2.317678e-05
1.088316e-05
4.412533e-06
2.831155e-06
1.544159e-06
7.379157e-07
3.004715e-07
7.039674e-08
1.509620e-08
6.658214e-09
4.380717e-09
3.570547e-09
2.203965e-09
8.594671e-10
1.535437e-10
1.651183e-11
1.044745e-11
7.209315e-12
2.996561e-12
1.553351e-12
4.672832e-13
2.408946e-13
1.658638e-13
7.985484e-14
6.377996e-14
3.864055e-14
1.758768e-14
7.890275e-15
3.662656e-15
1.411381e-15
1.813730e-16
9.534753e-18
1.508094e-17
1.232390e-17
7.215025e-18
3.210244e-18
1.361108e-18
5.866407e-19
2.032800e-19
2.173992e-20
-2.862080e-21
-2.484190e-21
-1.399033e-21
-6.490243e-22
-2.979990e-22
-1.285437e-22
1.000000e+00
1.000000e+00
1.000000e+00
1.000000e+00
1.000000e+00
1.000000e+00
1.000000e+00
1.000000e+00
1.000000e+00
9.999998e-01
9.999998e-01
9.999981e-01
9.999940e-01
9.999959e-01
9.999364e-01
9.991170e-01
9.953385e-01
9.838131e-01
9.547409e-01
8.885546e-01
8.115756e-01
7.049758e-01
5.185103e-01
4.165254e-01
2.444552e-01
1.648932e-01
8.848733e-02
4.339438e-02
1.931237e-02
7.734352e-03
2.730273e-03
8.213140e-04
2.212642e-04
7.355101e-05
4.146143e-05
2.778433e-05
1.284143e-05
3.290117e-06
1.373327e-06
7.421711e-07
5.712885e-07
3.627316e-07
1.925751e-07
6.836706e-08
1.020048e-08
3.677515e-09
2.203772e-09
1.691622e-09
1.069937e-09
5.123886e-10
2.335456e-10
1.099143e-10
5.049670e-11
2.315969e-11
1.108205e-11
5.269857e-12
1.858046e-12
2.318196e-13
2.650770e-14
3.071553e-14
1.207293e-14
7.562259e-15
3.743364e-15
2.755006e-15
1.906576e-15
6.294739e-16
6.144038e-17
1.336760e-17
6.557903e-18
2.648006e-18
1.290795e-18
5.704470e-19
4.174957e-19
2.597593e-19
1.192077e-19
5.018024e-20
2.076049e-20
8.529867e-21
3.481329e-21
1.420063e-21
1.000000e+00
1.000000e+00
1.000000e+00
1.000000e+00
1.000000e+00
1.000000e+00
1.000000e+00
1.000000e+00
1.000000e+00
9.999999e-01
9.999998e-01
9.999998e-01
9.999967e-01
9.999955e-01
9.999969e-01
9.998365e-01
9.989926e-01
9.937570e-01
9.846237e-01
9.403192e-01
8.937659e-01
7.989670e-01
7.032491e-01
5.214321e-01
4.170662e-01
2.477880e-01
1.704591e-01
9.363847e-02
4.704732e-02
2.142270e-02
8.816086e-03
3.219374e-03
1.011714e-03
2.699729e-04
7.293705e-05
3.795341e-05
3.014060e-05
1.935788e-05
9.175608e-06
3.046727e-06
5.784336e-07
3.561671e-07
1.950031e-07
1.540134e-07
9.806492e-08
4.209925e-08
8.697621e-09
1.809024e-09
8.163372e-10
3.282776e-10
1.272730e-10
9.578767e-11
3.859837e-11
1.746675e-11
9.700570e-12
5.374676e-12
4.260061e-12
2.607575e-12
1.232192e-12
5.609049e-13
2.699719e-13
1.011044e-13
1.591678e-14
1.475590e-15
1.725495e-15
1.444349e-15
8.859441e-16
4.096168e-16
1.783617e-16
8.317383e-17
3.053522e-17
4.629287e-18
3.049325e-19
2.431951e-19
1.375535e-20
4.291005e-20
2.121673e-21
-3.786530e-22
1.554900e-21
1.190783e-21
1.000000e+00
1.000000e+00
1.000000e+00
1.000000e+00
1.000000e+00
1.000000e+00
1.000000e+00
1.000000e+00
1.000000e+00
1.000000e+00
9.999999e-01
9.999999e-01
9.999991e-01
9.999966e-01
9.999971e-01
9.999281e-01
9.999044e-01
9.969187e-01
9.968545e-01
9.755303e-01
9.436294e-01
8.871819e-01
7.906798e-01
7.010142e-01
5.218734e-01
4.173480e-01
2.502733e-01
1.743573e-01
9.760819e-02
5.029772e-02
2.346838e-02
9.945474e-03
3.805081e-03
1.286609e-03
3.695127e-04
8.351835e-05
2.987279e-05
1.935556e-05
1.416742e-05
9.538961e-06
4.999556e-06
1.832330e-06
5.264453e-07
1.468277e-07
9.583148e-08
7.076568e-08
4.867967e-08
2.560950e-08
1.199793e-08
5.705387e-09
2.662590e-09
1.254122e-09
5.841672e-10
2.840217e-10
1.014431e-10
1.582775e-11
4.053387e-12
2.129331e-12
8.111658e-13
4.765889e-13
2.686063e-13
2.109862e-13
1.371922e-13
5.557793e-14
1.002164e-14
1.207727e-15
5.453479e-16
4.002961e-16
1.253191e-16
7.081280e-17
6.196851e-17
3.931726e-17
1.814678e-17
8.072065e-18
3.643501e-18
1.609800e-18
7.118906e-19
3.146668e-19
1.395907e-19
5.866686e-20
1.000000e+00
1.000000e+00
1.000000e+00
1.000000e+00
1.000000e+00
1.000000e+00
1.000000e+00
1.000000e+00
1.000000e+00
1.000000e+00
1.000000e+00
9.999999e-01
9.999999e-01
9.999983e-01
9.999992e-01
9.999679e-01
1.000019e+00
9.986212e-01
9.986771e-01
9.926286e-01
9.750195e-01
9.412549e-01
8.823187e-01
7.836269e-01
6.993938e-01
5.243943e-01
4.205712e-01
2.545728e-01
1.790052e-01
1.014260e-01
5.353608e-02
2.547194e-02
1.099176e-02
4.329976e-03
1.563642e-03
5.133331e-04
1.481260e-04
4.583702e-05
1.930644e-05
1.176691e-05
7.780529e-06
4.205194e-06
2.351457e-06
1.156414e-06
4.255901e-07
8.752815e-08
4.254944e-08
2.624442e-08
1.133518e-08
5.467069e-09
2.714019e-09
1.141313e-09
5.408183e-10
2.855588e-10
2.342781e-10
1.454601e-10
6.857662e-11
3.186895e-11
1.537460e-11
6.149365e-12
9.527824e-13
1.732178e-13
1.336361e-13
1.081474e-13
6.916773e-14
3.332081e-14
1.523337e-14
7.276503e-15
2.769410e-15
4.599167e-16
5.310486e-17
3.080210e-17
1.645515e-17
7.076862e-18
3.255472e-18
4.694126e-19
4.330837e-19
1.811359e-19
1.332858e-19
5.722144e-20
1.000000e+00
1.000000e+00
1.000000e+00
1.000000e+00
1.000000e+00
1.000000e+00
1.000000e+00
1.000000e+00
1.000000e+00
1.000000e+00
1.000000e+00
1.000000e+00
1.000000e+00
9.999992e-01
9.999995e-01
9.999852e-01
1.000005e+00
9.993709e-01
9.993507e-01
9.979964e-01
9.905539e-01
9.730583e-01
9.372456e-01
8.796638e-01
7.714699e-01
6.917667e-01
5.232386e-01
4.221676e-01
2.585612e-01
1.840019e-01
1.048354e-01
5.700285e-02
2.782417e-02
1.219647e-02
4.825930e-03
1.741112e-03
5.764489e-04
1.833513e-04
6.126437e-05
2.409985e-05
1.265371e-05
7.793365e-06
3.665198e-06
1.719970e-06
1.132301e-06
6.761761e-07
3.359759e-07
1.769024e-07
8.790818e-08
4.381249e-08
2.204576e-08
1.073613e-08
4.316817e-09
9.518663e-10
2.487743e-10
1.231560e-10
6.133566e-11
2.627727e-11
1.519443e-11
1.177139e-11
8.285506e-12
3.092695e-12
5.154907e-13
8.637785e-14
5.559212e-14
2.598068e-14
1.558363e-14
7.507270e-15
5.611728e-15
3.522096e-15
1.640724e-15
7.540462e-16
3.401912e-16
1.540912e-16
6.964784e-17
3.200235e-17
1.424437e-17
6.611051e-18
2.133093e-18
3.552090e-19
1.000000e+00
1.000000e+00
1.000000e+00
1.000000e+00
1.000000e+00
1.000000e+00
1.000000e+00
1.000000e+00
1.000000e+00
1.000000e+00
1.000000e+00
1.000000e+00
1.000000e+00
9.999997e-01
9.999997e-01
9.999932e-01
9.999955e-01
9.997664e-01
9.995445e-01
9.994636e-01
9.969712e-01
9.892334e-01
9.704224e-01
9.337609e-01
8.782418e-01
7.661547e-01
6.868878e-01
5.219603e-01
4.232789e-01
2.619558e-01
1.899375e-01
1.067644e-01
5.990775e-02
3.034578e-02
1.378524e-02
5.608199e-03
2.045313e-03
6.777656e-04
2.140578e-04
7.170144e-05
2.725505e-05
1.363566e-05
9.786253e-06
4.396657e-06
1.346614e-06
6.957744e-07
3.187281e-07
1.777425e-07
8.152446e-08
4.164630e-08
2.072115e-08
1.060838e-08
8.598648e-09
5.504374e-09
2.842622e-09
1.341515e-09
6.452582e-10
2.758600e-10
5.463204e-11
9.696058e-12
8.027525e-12
6.525267e-12
4.102013e-12
1.971714e-12
9.092865e-13
4.326085e-13
1.692093e-13
2.984011e-14
5.070515e-15
2.204698e-15
1.618447e-15
3.571838e-16
2.202593e-16
1.112737e-16
5.073386e-17
2.308218e-17
1.432301e-17
6.519009e-18
5.224316e-18
2.691897e-18
1.000000e+00
1.000000e+00
1.000000e+00
1.000000e+00
1.000000e+00
1.000000e+00
1.000000e+00
1.000000e+00
1.000000e+00