# vtk DataFile Version 3.0
MUSCL
ASCII
DATASET STRUCTURED_POINTS
DIMENSIONS 80 80 1
ORIGIN 0 0 0
SPACING 0.0125 0.0125 1
POINT_DATA 6400
SCALARS Temperature double 1
LOOKUP_TABLE default
0.000000e+00
-6.740008e-01
-1.939452e-01
-2.456327e-02
-3.504573e-04
2.041059e-05
2.346081e-06
-1.112758e-06
-1.667528e-07
-7.464029e-08
-3.931348e-08
-2.097991e-08
-1.009815e-08
-4.414209e-09
-1.746351e-09
-6.453320e-10
-4.674812e-11
5.634791e-14
6.882907e-13
-9.729077e-16
-7.344288e-15
-3.240265e-15
2.422174e-15
3.350014e-15
1.875885e-15
6.469046e-16
1.863750e-16
4.632925e-17
1.030897e-17
2.156528e-18
4.635138e-19
1.187486e-19
4.073467e-20
1.796895e-20
9.164430e-21
4.991405e-21
2.735941e-21
1.440521e-21
7.584969e-22
3.793834e-22
4.640460e-23
-3.708348e-24
-1.855453e-24
-1.159988e-24
-7.409175e-25
-4.415194e-25
-2.326648e-25
-1.103560e-25
-4.876105e-26
-2.076599e-26
-8.775547e-27
-3.744417e-27
-1.807498e-27
-5.337110e-28
-1.872440e-29
1.877555e-30
2.576834e-30
1.403892e-30
6.417481e-31
2.760241e-31
1.098026e-31
4.322231e-32
1.533740e-32
2.279212e-34
-2.871739e-35
-3.932837e-35
-2.445016e-35
-8.044101e-36
-7.579252e-37
2.092298e-37
6.991530e-38
3.417394e-38
1.108311e-38
6.039318e-39
2.011649e-39
6.087301e-40
2.348177e-40
1.077705e-40
4.986830e-41
2.454651e-41
1.325999e+00
6.740008e-01
1.939452e-01
2.456327e-02
3.504573e-04
-2.041059e-05
-2.346081e-06
1.112758e-06
1.667528e-07
7.464029e-08
3.931348e-08
2.097991e-08
1.009815e-08
4.414209e-09
1.746351e-09
6.453320e-10
4.674812e-11
-5.634791e-14
-6.882907e-13
9.729077e-16
7.344288e-15
3.240265e-15
-2.422174e-15
-3.350014e-15
-1.875885e-15
-6.469046e-16
-1.863750e-16
-4.632925e-17
-1.030897e-17
-2.156528e-18
-4.635138e-19
-1.187486e-19
-4.073467e-20
-1.796895e-20
-9.164430e-21
-4.991405e-21
-2.735941e-21
-1.440521e-21
-7.584969e-22
-3.793834e-22
-4.640460e-23
3.708348e-24
1.855453e-24
1.159988e-24
7.409175e-25
4.415194e-25
2.326648e-25
1.103560e-25
4.876105e-26
2.076599e-26
8.775547e-27
3.744417e-27
1.807498e-27
5.337110e-28
1.872440e-29
-1.877555e-30
-2.576834e-30
-1.403892e-30
-6.417481e-31
-2.760241e-31
-1.098026e-31
-4.322231e-32
-1.533740e-32
-2.279212e-34
2.871739e-35
3.932837e-35
2.445016e-35
8.044101e-36
7.579252e-37
-2.092298e-37
-6.991530e-38
-3.417394e-38
-1.108311e-38
-6.039318e-39
-2.011649e-39
-6.087301e-40
-2.348177e-40
-1.077705e-40
-4.986830e-41
-2.454651e-41
1.041913e+00
9.580872e-01
5.984966e-01
2.397524e-01
5.880815e-02
3.809231e-03
2.793424e-07
-5.086883e-05
-2.937704e-05
-1.197180e-05
-4.988781e-06
-2.143930e-06
-9.042791e-07
-2.391484e-07
-2.981859e-09
7.224967e-10
6.459203e-10
1.533377e-10
-8.499218e-13
-1.919469e-12
-9.775478e-13
-1.584449e-13
1.788629e-16
2.015235e-15
-6.625740e-16
-5.395825e-16
-1.725331e-16
-1.621461e-17
1.348035e-17
1.147188e-17
6.414998e-18
3.422907e-18
1.702319e-18
7.988398e-19
3.536771e-19
1.465575e-19
5.666232e-20
1.781802e-20
3.382453e-21
-3.723223e-22
-3.971743e-22
-3.375615e-22
-1.865307e-22
-1.094950e-22
-6.639463e-23
-3.942684e-23
-2.252124e-23
-1.216828e-23
-6.172429e-24
-2.983164e-24
-1.389856e-24
-6.084850e-25
-1.329415e-25
-2.157909e-27
5.037155e-28
5.267992e-28
2.793309e-28
1.275666e-28
5.672354e-29
2.469352e-29
1.088316e-29
3.569468e-30
1.981738e-31
-2.254579e-32
-1.146908e-32
-4.518317e-33
-1.496656e-33
-2.731144e-34
-1.058522e-36
1.019005e-35
8.167897e-36
3.335718e-36
1.308444e-36
5.845644e-37
2.572545e-37
1.069220e-37
4.482137e-38
2.010074e-38
9.413626e-39
3.976722e-39
9.995463e-01
1.000454e+00
8.866023e-01
5.935361e-01
2.706651e-01
8.399103e-02
1.654042e-02
1.193329e-03
4.517866e-04
1.975831e-04
7.291861e-05
9.042475e-06
-1.124385e-06
-8.286395e-07
-4.825674e-07
-1.540117e-07
-3.723919e-09
5.688455e-10
4.851958e-10
1.674341e-10
1.723597e-12
-4.083523e-13
-6.278007e-13
-3.312400e-13
-1.265923e-13
-4.977272e-14
-1.492951e-14
-1.078762e-15
-1.311648e-16
-3.251657e-17
-9.619664e-17
-1.215078e-16
-8.923864e-17
-4.484810e-17
-2.222190e-17
-8.932418e-18
-1.856418e-18
5.244471e-20
1.350593e-20
6.930374e-21
3.150165e-21
1.458083e-21
5.033166e-22
8.854937e-23
-5.002414e-23
-2.784703e-23
-1.517636e-23
-1.227003e-23
1.806758e-24
-2.031014e-24
-1.176796e-24
-8.830195e-25
-5.494322e-25
-2.799271e-25
-1.179242e-25
-5.096233e-26
-2.208228e-26
-9.427161e-27
-4.072253e-27
-1.455562e-27
-1.998973e-28
1.178853e-30
4.040930e-30
2.158760e-30
8.648458e-31
2.871894e-31
7.047185e-32
6.840115e-33
-4.282813e-34
-7.761187e-34
-3.988306e-34
-1.733574e-34
-7.675016e-35
-3.404129e-35
-1.511249e-35
-6.776687e-36
-3.066775e-36
-1.386265e-36
-6.078973e-37
-2.869303e-37
9.999191e-01
1.000081e+00
9.863991e-01
8.524530e-01
5.807952e-01
2.962707e-01
9.875407e-02
2.170814e-02
5.336458e-04
1.254310e-04
1.360780e-04
8.941981e-05
3.991690e-05
7.290746e-06
-2.908507e-07
-3.516912e-07
-2.262806e-07
-5.725013e-08
-2.188812e-10
2.568728e-10
2.556414e-10
1.321337e-10
6.239446e-11
2.881260e-11
1.174329e-11
1.202659e-12
6.183630e-15
-1.563026e-14
-6.388452e-16
9.838270e-17
-7.137229e-17
-1.151483e-16
-4.039641e-17
-3.289473e-17
-1.839644e-17
-1.537281e-17
-1.046808e-17
-5.400693e-18
-2.317368e-18
-9.651617e-19
-3.893405e-19
-1.508553e-19
-5.610906e-20
-2.048905e-20
-7.515220e-21
-2.897731e-21
-1.189567e-21
-5.409294e-22
-2.395007e-22
-8.655824e-23
-1.281017e-23
-7.455008e-25
-2.275046e-25
-9.254116e-27
-3.921529e-26
-3.131009e-26
-1.319454e-26
-5.701277e-27
-4.319719e-27
-2.832448e-27
-1.614299e-27
-7.398663e-28
-2.890065e-28
-1.068908e-28
-3.427926e-29
-8.925394e-30
-1.300375e-30
5.473628e-32
8.212311e-32
4.847948e-32
2.019183e-32
8.383567e-33
3.614415e-33
1.650220e-33
7.924298e-34
3.895268e-34
1.898909e-34
8.997840e-35
4.268414e-35
1.607303e-35
9.999726e-01
1.000027e+00
1.000082e+00
9.657325e-01
8.295915e-01
5.646982e-01
3.365419e-01
1.265916e-01
3.468241e-02
2.615296e-03
5.466287e-05
6.495121e-05
6.200467e-05
4.437136e-05
1.875934e-05
3.130771e-06
-3.137496e-07
-2.041058e-07
-1.126769e-07
-4.920133e-08
-2.153960e-08
-9.309123e-09
-2.681479e-09
-2.223325e-11
1.375628e-11
1.250538e-11
3.984536e-12
4.478033e-14
-3.353547e-14
-2.444289e-14
-1.070727e-14
-4.575924e-15
-2.028963e-15
-9.749159e-16
-2.989147e-16
-1.519545e-17
-7.212520e-18
-3.086047e-18
-1.217006e-18
-7.755943e-19
1.229855e-19
-1.425288e-19
-4.138373e-20
-1.162893e-20
-3.792771e-21
-4.814764e-22
-7.105130e-23
-3.357080e-22
-3.102711e-22
-2.268527e-22
-1.429946e-22
-6.547036e-23
-2.929380e-23
-1.300537e-23
-5.838544e-24
-2.692105e-24
-1.040649e-24
-1.781383e-25
1.419046e-26
-1.550988e-27
-1.507162e-27
6.255134e-28
3.331767e-28
1.122035e-28
4.045811e-30
-3.339817e-30
2.518970e-31
-5.664398e-30
-4.131668e-30
-1.641732e-30
-5.897931e-31
-2.184150e-31
-9.708288e-32
-5.103924e-32
-2.851044e-32
-1.541786e-32
-8.379419e-33
-2.804168e-33
1.535890e-35
6.183640e-35
9.999954e-01
1.000005e+00
1.000038e+00
9.984075e-01
9.484015e-01
8.111175e-01
5.427014e-01
3.576220e-01
1.478554e-01
5.005333e-02
9.571269e-03
9.493553e-05
-2.752013e-05
4.252890e-05
3.450138e-05
2.151557e-05
1.095236e-05
4.779471e-06
2.058706e-06
7.401721e-07
7.170945e-08
-1.104815e-08
-8.208391e-09
-4.606444e-09
-1.191297e-09
1.438660e-11
1.006540e-11
8.984363e-12
4.261466e-12
1.790066e-12
7.303738e-13
3.115880e-13
1.050240e-13
7.212414e-15
-5.994728e-16
-5.726195e-16
-2.766169e-16
-1.298226e-16
-6.089959e-17
-2.810842e-17
-1.288721e-17
-5.700838e-18
-2.413931e-18
-1.031721e-18
-4.386542e-19
-1.778913e-19
-3.692935e-20
2.296639e-22
-2.054758e-22
-2.495700e-23
-1.072404e-23
-3.376016e-23
-2.260297e-23
-9.689912e-24
-3.663854e-24
-2.376554e-24
-1.855190e-24
-1.221773e-24
-6.329963e-25
-2.806132e-25
-1.099006e-25
-4.018736e-26
-1.453984e-26
-6.417636e-27
-2.303965e-27
-7.684585e-28
-1.421499e-28
-4.665245e-31
1.668058e-31
-3.995553e-31
-2.388670e-31
-9.616992e-32
-9.622806e-32
-3.851256e-32
-1.948181e-32
-1.503979e-32
-8.249825e-33
-7.193360e-33
-4.757354e-33
-2.066791e-33
9.999984e-01
1.000002e+00
1.000012e+00
1.000003e+00
9.917537e-01
9.348102e-01
7.949410e-01
5.167896e-01
3.729010e-01
1.555322e-01
5.833537e-02
1.609020e-02
2.167482e-03
5.575642e-05
3.225047e-05
2.091840e-05
1.096300e-05
4.921797e-06
2.128993e-06
1.404618e-06
9.615622e-07
3.477978e-07
3.855506e-08
-6.197932e-09
-4.434810e-09
-2.490482e-09
-1.076357e-09
-4.567010e-10
-1.928434e-10
-8.379844e-11
-2.967636e-11
-3.108900e-12
1.221116e-13
1.414809e-13
7.142963e-14
3.013840e-14
1.277167e-14
5.451392e-15
2.340722e-15
1.007989e-15
4.343776e-16
1.876336e-16
7.258205e-17
1.585577e-17
-6.034942e-19
-2.603013e-19
-1.731686e-19
-9.233664e-20
-4.261217e-20
-1.842077e-20
-7.483373e-21
-2.984806e-21
-1.212076e-21
-5.132165e-22
-1.805643e-22
-2.994621e-23
-1.980336e-25
-1.048898e-24
-4.737734e-25
-1.495589e-25
-1.732449e-25
-1.013530e-25
-4.533765e-26
-6.687907e-27
-9.920252e-28
-6.984006e-28
-5.223530e-28
-3.521870e-28
-1.833445e-28
-8.277857e-29
-3.369495e-29
-1.326284e-29
-5.501014e-30
-2.533014e-30
-1.142812e-30
-4.244418e-31
-1.887477e-32
4.432400e-33
-3.089792e-33
-1.550258e-34
9.999991e-01
1.000001e+00
1.000001e+00
1.000024e+00
9.999500e-01
9.848338e-01
9.218095e-01
7.795091e-01
5.212579e-01
3.784062e-01
1.649767e-01
6.672771e-02
2.044576e-02
4.237163e-03
3.640582e-04
7.524571e-05
4.510608e-05
2.538286e-05
9.443170e-06
1.881158e-06
9.528474e-07
7.442600e-07
4.443612e-07
2.132257e-07
9.082567e-08
3.819492e-08
1.594771e-08
6.894895e-09
1.995351e-09
-5.339061e-11
-5.599914e-11
-3.888966e-11
-1.783281e-11
-7.737591e-12
-3.354633e-12
-1.460715e-12
-6.386941e-13
-2.801127e-13
-1.225205e-13
-5.474685e-14
-1.455835e-14
1.426556e-16
1.092143e-16
8.211899e-17
3.936224e-17
8.780550e-18
8.368093e-19
5.052257e-19
2.905771e-19
1.198572e-19
3.570495e-20
7.020024e-21
2.417657e-22
-4.433688e-22
-3.812886e-22
-2.325148e-22
-1.064902e-22
-4.656512e-23
-1.851904e-23
-4.006358e-24
-1.082281e-25
-3.928359e-26
-2.590131e-26
-7.282536e-26
-4.488690e-26
-3.824309e-27
-9.783798e-30
-2.257041e-28
-4.320850e-29
-2.174076e-29
-2.828180e-29
-1.042094e-29
-3.752599e-30
-2.218219e-30
-1.709497e-30
-1.266660e-30
-8.419149e-31
-4.137426e-31
-1.988520e-31
-1.002186e-31
9.999997e-01
1.000000e+00
1.000000e+00
1.000010e+00
1.000020e+00
9.988719e-01
9.786520e-01
9.079804e-01
7.698503e-01
5.221229e-01
3.810941e-01
1.772332e-01
7.561026e-02
2.529742e-02
5.852243e-03
4.252416e-04
1.842632e-05
2.934161e-05
2.501054e-05
1.370573e-05
3.683488e-06
7.577919e-07
4.550662e-07
2.120434e-07
9.438750e-08
3.749292e-08
1.634494e-08
7.139395e-09
5.448071e-09
3.081905e-09
1.303809e-09
5.414828e-10
2.231526e-10
9.217563e-11
3.836056e-11
1.599766e-11
6.947322e-12
1.978481e-12
4.591363e-15
-6.471902e-14
-4.970444e-14
-2.608742e-14
-4.983580e-15
-2.934419e-17
5.722525e-17
3.551398e-17
1.158215e-17
7.357835e-19
-1.063687e-19
9.950074e-20
2.990842e-20
3.917111e-21
-3.851876e-21
-1.156847e-21
-3.739233e-22
-1.511961e-22
-3.768420e-23
-4.283322e-23
-3.184624e-23
-2.078970e-23
-1.016856e-23
-2.685607e-24
-8.180802e-26
-4.591753e-26
-7.989812e-26
-6.539690e-26
-2.741629e-26
-1.153288e-26
-5.019995e-27
-2.290359e-27
-9.995158e-28
-4.203057e-28
-1.209616e-28
-1.308219e-29
-1.787784e-30
-6.409025e-31
-7.455994e-31
-3.853780e-31
-1.900982e-31
-9.315251e-32
9.999999e-01
1.000000e+00
1.000000e+00
1.000002e+00
1.000014e+00
9.999919e-01
9.971782e-01
9.709617e-01
8.969232e-01
7.615187e-01
5.237090e-01
3.741367e-01
1.874226e-01
8.570489e-02
3.191320e-02
8.861707e-03
1.261943e-03
4.056110e-05
2.519148e-05
2.173670e-05
1.601671e-05
6.288714e-06
1.763021e-06
8.416156e-07
4.828691e-07
2.447285e-07
1.026432e-07
2.439888e-08
4.735986e-09
2.658702e-09
1.086834e-09
5.303683e-10
1.686916e-10
7.463800e-11
2.909834e-11
1.517104e-11
6.910860e-12
5.329423e-12
2.772881e-12
6.969028e-13
-4.744380e-14
-3.964974e-14
-2.885159e-14
-1.278184e-14
-2.157487e-15
9.981124e-17
4.042675e-17
2.332603e-17
1.159354e-17
3.916706e-18
1.583275e-19
-1.437686e-20
-2.640545e-20
-1.789223e-20
-8.071001e-21
-3.730011e-21
-1.645287e-21
-4.242789e-22
-3.850038e-23
-1.727791e-23
-1.020068e-23
-9.374891e-24
-5.792087e-24
-1.560698e-24
-1.126120e-25
-5.934890e-26
-1.335767e-26
-9.662150e-27
-3.827208e-27
-1.963640e-27
-9.603733e-28
-5.901578e-28
-3.765352e-28
-2.167582e-28
-1.004263e-28
-4.534310e-29
-2.096421e-29
-1.028926e-29
-3.860518e-30
-5.605680e-31
1.000000e+00
1.000000e+00
1.000000e+00
9.999999e-01
1.000006e+00
1.000007e+00
1.000008e+00
9.942576e-01
9.638406e-01
8.860874e-01
7.588921e-01
5.119330e-01
3.893165e-01
1.920478e-01
9.234443e-02
3.717336e-02
1.169717e-02
2.370900e-03
6.920349e-05
1.851480e-05
1.676774e-05
1.397471e-05
6.807468e-06
1.464057e-06
4.360394e-07
3.053346e-07
2.226508e-07
1.393385e-07
6.881375e-08
3.193479e-08
1.514073e-08
7.128175e-09
3.309432e-09
1.504659e-09
7.138742e-10
2.360163e-10
3.191769e-11
5.828255e-12
4.248275e-12
2.957035e-12
1.582968e-12
3.871669e-13
-1.847353e-14
-2.212010e-14
-1.501101e-14
-7.470888e-15
-3.313687e-15
-9.139137e-16
-1.373790e-18
6.882055e-18
6.756276e-18
3.250365e-18
1.408109e-18
6.121657e-19
1.558170e-19
1.944181e-22
-2.289841e-21
-1.698482e-21
-8.878938e-22
-3.294237e-22
-4.227860e-23
-6.220368e-24
-5.454420e-24
-4.976297e-24
-2.680382e-24
-1.065953e-24
-4.388941e-25
-1.873126e-25
-8.651519e-26
-4.268883e-26
-1.419998e-26
-9.315197e-28
-5.700515e-29
-1.482971e-28
-7.156216e-29
-1.738531e-29
-1.690386e-29
-1.001350e-29
-8.012424e-30
-4.681657e-30
1.000000e+00
1.000000e+00
1.000000e+00
1.000000e+00
1.000002e+00
1.000006e+00
1.000009e+00
9.997325e-01
9.914341e-01
9.548089e-01
8.817380e-01
7.454212e-01
5.159283e-01
3.938028e-01
1.986290e-01
9.890107e-02
4.199437e-02
1.456739e-02
3.648494e-03
3.508023e-04
2.022836e-05
1.621685e-05
1.369395e-05
9.661253e-06
3.461228e-06
5.264242e-07
2.122414e-07
1.271661e-07
6.721891e-08
3.131080e-08
1.141212e-08
7.132590e-09
2.677033e-09
1.341721e-09
6.962484e-10
5.765447e-10
3.322663e-10
8.797201e-11
5.346769e-12
2.699140e-12
2.065698e-12
1.459513e-12
7.924784e-13
3.209222e-13
1.032468e-13
7.290538e-15
-3.479899e-15
-2.920196e-15
-1.636301e-15
-7.064105e-16
-3.146452e-16
-8.905389e-17
-8.161395e-19
6.993569e-19
5.555485e-19
3.092337e-19
1.411495e-19
3.698424e-20
-4.128369e-22
-5.381339e-22
-4.060632e-22
-1.418693e-22
-1.900515e-23
-4.850012e-24
-1.259092e-24
-9.473759e-25
-4.300237e-25
-4.726705e-26
-8.018254e-26
-4.150706e-26
-3.395296e-26
-2.141587e-26
-1.098822e-26
-5.634167e-27
-2.828926e-27
-1.398968e-27
-6.700665e-28
-1.482711e-28
-9.611200e-30
-4.530668e-30
1.000000e+00
1.000000e+00
1.000000e+00
1.000000e+00
1.000000e+00
1.000002e+00
1.000006e+00
9.999070e-01
9.998502e-01
9.863267e-01
9.508365e-01
8.715475e-01
7.384674e-01
5.161700e-01
3.972129e-01
2.051954e-01
1.052081e-01
4.641967e-02
1.748784e-02
5.038502e-03
6.111706e-04
-2.183979e-05
8.668671e-06
9.678497e-06
8.312832e-06
5.178675e-06
2.488120e-06
1.207881e-06
5.952877e-07
2.869814e-07
1.423414e-07
6.931019e-08
3.325249e-08
1.305024e-08
2.862713e-09
6.064048e-10
4.650437e-10
3.466806e-10
1.626337e-10
3.360333e-11
1.883103e-12
1.012623e-12
3.471458e-13
2.951049e-13
2.212840e-13
1.254861e-13
5.517272e-14
2.113739e-14
6.407287e-15
4.754246e-16
-3.066925e-16
-2.708605e-16
-1.525706e-16
-6.922791e-17
-1.963297e-17
2.818695e-19
1.663769e-19
1.284206e-19
7.218838e-20
2.816869e-20
2.982253e-21
-1.126796e-22
-1.651236e-22
-9.073504e-23
-4.373777e-23
-1.963197e-23
-8.588789e-24
-3.994503e-24
-1.406642e-24
-2.282828e-25
-2.746788e-26
-1.995922e-26
-9.147641e-27
-4.319278e-27
-2.333101e-27
-1.220139e-27
-6.671234e-28
-5.394251e-28
-3.351880e-28
-1.286843e-28
1.000000e+00
1.000000e+00
1.000000e+00
1.000000e+00
1.000000e+00
1.000000e+00
1.000004e+00
9.999627e-01
9.999960e-01
9.977076e-01
9.838654e-01
9.446965e-01
8.634857e-01
7.326586e-01
5.157852e-01
4.002194e-01
2.115899e-01
1.117383e-01
5.060320e-02
2.044035e-02
7.067324e-03
1.762233e-03
2.248345e-04
1.394581e-05
5.023629e-06
6.495126e-07
1.041883e-06
1.093147e-06
4.852870e-07
7.175729e-08
4.690414e-08
5.686694e-08
3.352640e-08
2.641296e-08
1.560973e-08
5.405891e-09
4.795990e-10
3.141951e-10
2.668659e-10
1.839665e-10
9.122935e-11
4.314771e-11
1.616722e-11
2.477251e-12
2.490492e-13
1.084753e-13
1.479317e-14
1.744961e-14
1.364649e-14
7.470843e-15
3.266674e-15
9.364514e-16
1.653277e-17
-7.091853e-17
-5.979725e-17
-3.442374e-17
-1.581938e-17
-4.480385e-18
4.236003e-20
3.351845e-20
2.634116e-20
1.283992e-20
5.988409e-21
2.841482e-21
1.325809e-21
6.237150e-22
2.593329e-22
2.464882e-23
-2.816535e-24
-1.778450e-24
-8.172745e-25
-3.298524e-25
-1.370293e-25
-5.774227e-26
-2.486131e-26
-1.046995e-26
-2.430196e-27
-4.961036e-28
-3.387093e-28
-2.548310e-28
1.000000e+00
1.000000e+00
1.000000e+00
1.000000e+00
1.000000e+00
1.000000e+00
1.000002e+00
9.999850e-01
9.999971e-01
9.999792e-01
9.962271e-01
9.802012e-01
9.386584e-01
8.559063e-01
7.276721e-01
5.150048e-01
4.022789e-01
2.167301e-01
1.190131e-01
5.374130e-02
2.143393e-02
7.374584e-03
2.244652e-03
7.195261e-04
3.230688e-04
1.427399e-04
6.406698e-05
2.898319e-05
1.341409e-05
6.073242e-06
2.750659e-06
8.900958e-07
1.257519e-07
2.075596e-08
2.088166e-08
1.636220e-08
8.786717e-09
2.265743e-09
2.325906e-10
1.106236e-10
5.763875e-11
4.202097e-11
3.343708e-11
2.102253e-11
9.868119e-12
4.373335e-12
1.592383e-12
2.225443e-13
1.275755e-14
4.729786e-15
3.228647e-15
2.067683e-15
1.087267e-15
4.120078e-16
1.288272e-16
6.925282e-18
-1.551172e-17
-1.332566e-17
-7.691318e-18
-3.162612e-18
-1.313381e-18
-5.295550e-19
-2.122962e-19
-9.029551e-20
-2.719621e-20
-2.094026e-22
6.284306e-22
3.003128e-22
1.607980e-22
7.233369e-23
3.203408e-23
1.418188e-23
5.721895e-24
1.199064e-24
-2.898823e-26
-1.720486e-26
-1.260193e-26
-5.808846e-27
-1.895689e-27
-2.406140e-28
1.000000e+00
1.000000e+00
1.000000e+00
1.000000e+00
1.000000e+00
1.000000e+00
1.000001e+00
9.999937e-01
9.999940e-01
9.999966e-01
9.996628e-01
9.947514e-01
9.763882e-01
9.334581e-01
8.476075e-01
7.249994e-01
5.158215e-01
4.044339e-01
2.192210e-01
1.311782e-01
6.155053e-02
2.466805e-02
8.100264e-03
1.892780e-03
3.544582e-04
1.474356e-04
6.664545e-05
2.519119e-05
1.042159e-05
5.159376e-06
2.725638e-06
2.242008e-06
1.253662e-06
3.274746e-07
2.063403e-08
1.435579e-08
1.231848e-08
9.205733e-09
4.763762e-09
2.322951e-09
9.415443e-10
1.862807e-10
3.107187e-11
1.285543e-11
7.463207e-12
3.960524e-12
3.235426e-12
2.020212e-12
8.999043e-13
2.496348e-13
4.266800e-15
-3.187625e-15
-5.940103e-16
1.445674e-16
1.310071e-16
7.797464e-17
2.825126e-17
-1.268772e-18
-6.695321e-18
-3.751218e-18
-1.346453e-18
-5.315429e-19
-2.012059e-19
-9.168912e-20
-6.966067e-20
-4.023462e-20
-1.821246e-20
-7.949776e-21
-3.505135e-21
-1.593285e-21
-5.674376e-22
-4.721950e-23
9.618467e-24
6.195743e-24
3.183253e-24
9.150178e-25
-5.411753e-27
-1.566149e-26
-6.908852e-27
-3.716800e-27
1.000000e+00
1.000000e+00
1.000000e+00
1.000000e+00
1.000000e+00
1.000000e+00
1.000000e+00
9.999985e-01
9.999948e-01
9.999957e-01
9.999910e-01
9.992599e-01
9.929672e-01
9.723859e-01
9.301905e-01
8.318841e-01
7.228330e-01
5.194613e-01
4.070771e-01
2.222826e-01
1.368439e-01
6.862214e-02
3.018113e-02
1.138316e-02
3.515770e-03
9.805678e-04
4.701107e-04
2.362332e-04
1.198986e-04
4.124125e-05
7.940469e-06
2.010648e-06
1.809110e-06
1.345789e-06
6.028279e-07
1.311864e-07
9.195104e-09
7.179573e-09
3.780239e-09
2.205816e-09
1.774413e-09
1.175026e-09
5.890995e-10
2.806482e-10
1.095880e-10
2.228444e-11
2.345594e-12
1.667402e-12
1.028982e-12
7.989526e-13
4.646420e-13
1.681544e-13
2.126080e-14
-7.488230e-16
-1.887626e-16
-7.915724e-17
-2.707785e-17
-1.838099e-17
-1.595909e-17
-1.264763e-17
-7.546960e-18
-4.033962e-18
-1.799871e-18
-4.055455e-19
-7.279525e-20
-3.195936e-20
-1.623789e-20
-5.454069e-21
-1.891998e-21
-1.556400e-21
-1.220664e-21
-7.790123e-22
-3.286609e-22
-6.113799e-23
4.377949e-24
2.793612e-24
1.582251e-24
6.934911e-25
2.607274e-25
6.713347e-26
1.000000e+00
1.000000e+00
1.000000e+00
1.000000e+00
1.000000e+00
1.000000e+00
1.000000e+00
1.000000e+00
9.999972e-01
9.999962e-01
9.999974e-01
9.999416e-01
9.989902e-01
9.901931e-01
9.711562e-01
9.209852e-01
8.231367e-01
7.195300e-01
5.218033e-01
4.078176e-01
2.281158e-01
1.366346e-01
6.952635e-02
3.128153e-02
1.175844e-02
3.389396e-03
5.624329e-04
2.406741e-04
1.280761e-04
1.029222e-04
5.791737e-05
1.694890e-05
1.818118e-06
1.301817e-06
1.016095e-06
6.715493e-07
3.374429e-07
1.626014e-07
6.254282e-08
1.093437e-08
8.602009e-10
5.524001e-10
4.392977e-10
2.567442e-10
2.173656e-10
1.365503e-10
6.961783e-11
2.277573e-11
2.255730e-12
5.910262e-13
4.493554e-13
3.536640e-13
2.124532e-13
9.933808e-14
4.207042e-14
1.795244e-14
7.677565e-15
3.269880e-15
1.372494e-15
5.934126e-16
1.771931e-16
4.751272e-18
-4.066346e-18
-2.112765e-18
-1.131146e-18
-5.114650e-19
-2.344245e-19
-1.105830e-19
-4.403960e-20
-8.019555e-21
-1.200418e-21
-7.766336e-22
-5.692373e-22
-3.817330e-22
-2.003607e-22
-8.961619e-23
-3.157572e-23
-3.144363e-24
3.702591e-25
2.296978e-25
1.000000e+00
1.000000e+00
1.000000e+00
1.000000e+00
1.000000e+00
1.000000e+00
1.000000e+00
1.000000e+00
9.999995e-01
9.999974e-01
9.999976e-01
9.999747e-01
1.000014e+00
9.975174e-01
9.896752e-01
9.671800e-01
9.134858e-01
8.160183e-01
7.166014e-01
5.214743e-01
4.107559e-01
2.332129e-01
1.463691e-01
7.665374e-02
3.645956e-02
1.522844e-02
5.256453e-03
1.350741e-03
3.024939e-04
1.034528e-04
8.517168e-05
6.389950e-05
3.122896e-05
8.221481e-06
1.093272e-06
5.174115e-07
3.077518e-07
1.472048e-07
1.214786e-07
7.802915e-08
3.830297e-08
1.813734e-08
6.646706e-09
1.096134e-09
1.091415e-10
1.092667e-10
7.053538e-11
5.522038e-11
3.391406e-11
1.278489e-11
2.202223e-12
3.115624e-13
1.806592e-13
6.081838e-14
4.075207e-14
9.701996e-15
3.979451e-15
1.552187e-15
1.094449e-15
5.826429e-16
4.584534e-16
2.609759e-16
1.092676e-16
4.576220e-17
1.932153e-17
8.457975e-18
2.216297e-18
-6.049878e-20
-7.175265e-20
-5.571956e-20
-2.331879e-20
-6.288471e-21
-5.912708e-22
-3.477608e-22
-1.507259e-22
-7.986812e-23
-6.346632e-23
-4.037293e-23
-1.943055e-23
-8.409575e-24
1.000000e+00
1.000000e+00
1.000000e+00
1.000000e+00
1.000000e+00
1.000000e+00
1.000000e+00
1.000000e+00
1.000000e+00
9.999986e-01
9.999986e-01
9.999875e-01
9.999934e-01
9.996210e-01
9.969600e-01
9.879788e-01
9.629879e-01
9.062180e-01
8.112158e-01
7.119293e-01
5.210428e-01
4.143649e-01
2.385866e-01
1.469469e-01
7.675798e-02
3.697073e-02
1.604521e-02
5.940045e-03
1.820245e-03
4.432882e-04
9.453006e-05
6.226324e-05
4.772387e-05
3.142587e-05
1.535337e-05
5.793214e-06
2.547307e-06
8.065268e-07
1.200067e-07
7.249213e-08
3.531668e-08
1.745320e-08
1.442601e-08
9.011290e-09
4.567919e-09
1.516291e-09
1.547288e-10
3.998055e-11
3.241629e-11
2.582493e-11
1.630063e-11
7.716537e-12
3.474402e-12
1.572851e-12
7.136252e-13
3.253116e-13
1.465585e-13
6.823144e-14
2.232315e-14
2.283398e-15
1.455255e-16
2.351034e-16
1.049735e-16
4.192577e-17
1.935099e-17
8.762586e-18
6.507155e-18
3.355335e-18
5.801010e-19
-4.904602e-20
-4.201073e-20
-2.739955e-20
-1.436086e-20
-6.364965e-21
-2.448194e-21
-5.850228e-22
-6.106093e-23
-3.669945e-23
-1.475209e-23
-7.154587e-24
1.000000e+00
1.000000e+00
1.000000e+00
1.000000e+00
1.000000e+00
1.000000e+00
1.000000e+00
1.000000e+00
1.000000e+00
9.999994e-01
9.999996e-01
9.999941e-01
9.999929e-01
9.999932e-01
9.993744e-01
9.962332e-01
9.860109e-01
9.586183e-01
8.992921e-01
8.087903e-01
7.066787e-01
5.196601e-01
4.154635e-01
2.429709e-01
1.591393e-01
8.341669e-02
4.029290e-02
1.766785e-02
6.906005e-03
2.341537e-03
6.647905e-04
1.657240e-04
6.106469e-05
3.767148e-05
2.350343e-05
1.077569e-05
4.167969e-06
2.769976e-06
1.477461e-06
7.161400e-07
2.901612e-07
6.741536e-08
1.523271e-08
8.034823e-09
4.667130e-09
3.725390e-09
2.306259e-09
8.719811e-10
1.456830e-10
1.715858e-11
1.519159e-11
5.992274e-12
3.038888e-12
1.040956e-12
5.527224e-13
2.799896e-13
1.225224e-13
6.853974e-14
5.429456e-14
3.285109e-14
1.492989e-14
6.512412e-15
2.839443e-15
1.301568e-15
4.336319e-16
4.117573e-17
3.146718e-18
4.640762e-18
3.986301e-18
2.201247e-18
9.868906e-19
4.506166e-19
1.328185e-19
-6.104548e-21
-4.684695e-21
-2.909593e-21
-1.408193e-21
-6.179605e-22
-2.813911e-22
-1.129358e-22
1.000000e+00
1.000000e+00
1.000000e+00
1.000000e+00
1.000000e+00
1.000000e+00
1.000000e+00
1.000000e+00
1.000000e+00
9.999998e-01
9.999998e-01
9.999981e-01
9.999943e-01
9.999948e-01
9.999395e-01
9.991251e-01
9.953425e-01
9.837965e-01
9.547008e-01
8.884936e-01
8.115072e-01
7.049077e-01
5.184854e-01
4.165289e-01
2.444914e-01
1.649319e-01
8.852614e-02
4.342814e-02
1.933896e-02
7.754322e-03
2.744044e-03
8.347995e-04
2.306883e-04
7.830638e-05
4.326507e-05
2.790227e-05
1.287012e-05
2.953188e-06
1.325409e-06
7.329789e-07
5.655397e-07
3.649834e-07
1.970351e-07
6.948144e-08
1.095473e-08
3.075027e-09
2.241147e-09
1.785417e-09
1.113530e-09
5.422004e-10
2.436290e-10
1.138569e-10
5.242464e-11
2.406110e-11
1.093369e-11
5.141744e-12
1.730867e-12
2.073975e-13
5.119452e-14
3.272874e-14
1.439920e-14
6.014880e-15
1.858791e-15
1.296846e-15
1.024833e-15
5.931196e-16
1.485907e-16
5.452407e-18
-4.962660e-19
1.325181e-18
7.996780e-19
4.603081e-19
3.631797e-19
2.167989e-19
9.640099e-20
4.245341e-20
1.861531e-20
8.103208e-21
3.471557e-21
1.543594e-21
1.000000e+00
1.000000e+00
1.000000e+00
1.000000e+00
1.000000e+00
1.000000e+00
1.000000e+00
1.000000e+00
1.000000e+00
9.999999e-01
9.999999e-01
9.999999e-01
9.999970e-01
9.999959e-01
9.999967e-01
9.998422e-01
9.989962e-01
9.937584e-01
9.845982e-01
9.402739e-01
8.937358e-01
7.989623e-01
7.032529e-01
5.214465e-01
4.170956e-01
2.478267e-01
1.704961e-01
9.367377e-02
4.707937e-02
2.145075e-02
8.841936e-03
3.244298e-03
1.030705e-03
2.808729e-04
7.815268e-05
3.964136e-05
2.992773e-05
1.972081e-05
9.399720e-06
3.008159e-06
5.553327e-07
3.549930e-07
2.006670e-07
1.591441e-07
1.008933e-07
4.150546e-08
8.964567e-09
1.832739e-09
1.074905e-09
4.007074e-10
1.656538e-10
1.047322e-10
4.327431e-11
2.173155e-11
9.855389e-12
5.072791e-12
4.153980e-12
2.517054e-12
1.149978e-12
5.214907e-13
2.390227e-13
1.130658e-13
3.832960e-14
5.652495e-15
8.117865e-16
7.845643e-16
5.809814e-16
3.042086e-16
1.362166e-16
6.640836e-17
2.163297e-17
1.144372e-18
-2.321786e-19
2.034891e-19
-7.863803e-21
3.285781e-21
3.660295e-21
1.060199e-21
1.462948e-21
1.099116e-21
1.000000e+00
1.000000e+00
1.000000e+00
1.000000e+00
1.000000e+00
1.000000e+00
1.000000e+00
1.000000e+00
1.000000e+00
1.000000e+00
9.999999e-01
9.999999e-01
9.999992e-01
9.999969e-01
9.999972e-01
9.999284e-01
9.999116e-01
9.969049e-01
9.968253e-01
9.755324e-01
9.436077e-01
8.871296e-01
7.906414e-01
7.009991e-01
5.218894e-01
4.173786e-01
2.503097e-01
1.743914e-01
9.764179e-02
5.033152e-02
2.350459e-02
9.981683e-03
3.834317e-03
1.305116e-03
3.788945e-04
8.805760e-05
3.087528e-05
2.008050e-05
1.460260e-05
9.718044e-06
4.946541e-06
1.843803e-06
5.440468e-07
1.474494e-07
1.009067e-07
7.851199e-08
5.038161e-08
2.549831e-08
1.179124e-08
5.585116e-09
2.723140e-09
1.276588e-09
5.957445e-10
2.892349e-10
1.016980e-10
1.562447e-11
3.013400e-12
2.537763e-12
7.860479e-13
3.301987e-13
2.347189e-13
1.161607e-13
9.157028e-14
4.974449e-14
1.403603e-14
8.989449e-16
4.349518e-16
3.106482e-16
9.432975e-17
6.601272e-17
5.472010e-17
3.395572e-17
1.564200e-17
6.891867e-18
3.103251e-18
1.409765e-18
6.399269e-19
2.870816e-19
1.298977e-19
5.867895e-20
1.000000e+00
1.000000e+00
1.000000e+00
1.000000e+00
1.000000e+00
1.000000e+00
1.000000e+00
1.000000e+00
1.000000e+00
1.000000e+00
1.000000e+00
9.999999e-01
9.999999e-01
9.999984e-01
9.999993e-01
9.999668e-01
9.999723e-01
9.986459e-01
9.987357e-01
9.924823e-01
9.749107e-01
9.412005e-01
8.822954e-01
7.836283e-01
6.994088e-01
5.244223e-01
4.206037e-01
2.546058e-01
1.790366e-01
1.014614e-01
5.357720e-02
2.551485e-02
1.102840e-02
4.355457e-03
1.577960e-03
5.208229e-04
1.528862e-04
4.673630e-05
1.958173e-05
1.198401e-05
7.892775e-06
4.254354e-06
2.344384e-06
1.165236e-06
4.309137e-07
7.858363e-08
5.028658e-08
2.352436e-08
1.048279e-08
4.901275e-09
2.224417e-09
1.124489e-09
4.811110e-10
2.893659e-10
2.348871e-10
1.438604e-10
6.762076e-11
3.185043e-11
1.457545e-11
7.137182e-12
2.373674e-12
4.243842e-13
9.823625e-14
7.585242e-14
5.272858e-14
2.801596e-14
1.232351e-14
6.016200e-15
1.957913e-15
1.768708e-16
2.075620e-17
1.412171e-17
8.648124e-18
4.604163e-18
1.255795e-18
1.256027e-18
6.098962e-19
1.016897e-19
1.255674e-19
6.020275e-20
1.000000e+00
1.000000e+00
1.000000e+00
1.000000e+00
1.000000e+00
1.000000e+00
1.000000e+00
1.000000e+00
1.000000e+00
1.000000e+00
1.000000e+00
1.000000e+00
1.000000e+00
9.999992e-01
9.999994e-01
9.999848e-01
9.999847e-01
9.993624e-01
9.993572e-01
9.979601e-01
9.905323e-01
9.730731e-01
9.372779e-01
8.797002e-01
7.715006e-01
6.917970e-01
5.232673e-01
4.221944e-01
2.585887e-01
1.840323e-01
1.048747e-01
5.704677e-02
2.786436e-02
1.222710e-02
4.845304e-03
1.752231e-03
5.824993e-04
1.853836e-04
6.189590e-05
2.440468e-05
1.288494e-05
7.903780e-06
3.689477e-06
1.700774e-06
1.086573e-06
6.835212e-07
3.336337e-07
1.701879e-07
8.581456e-08
4.264350e-08
2.201092e-08
1.071389e-08
4.418927e-09
1.009305e-09
2.371535e-10
1.212853e-10
5.461316e-11
2.937143e-11
1.346267e-11
7.399447e-12
5.888700e-12
3.236211e-12
9.312217e-13
5.948447e-14
4.677910e-14
1.532971e-14
1.097486e-14
6.030542e-15
4.735447e-15
2.914191e-15
1.366136e-15
6.297754e-16
2.880577e-16
1.317000e-16
6.019218e-17
2.743354e-17
1.231023e-17
5.919564e-18
1.879133e-18
2.667401e-19
1.000000e+00
1.000000e+00
1.000000e+00
1.000000e+00
1.000000e+00
1.000000e+00
1.000000e+00
1.000000e+00
1.000000e+00
1.000000e+00
1.000000e+00
1.000000e+00
1.000000e+00
9.999996e-01
9.999997e-01
9.999930e-01
9.999999e-01
9.997678e-01
9.995536e-01
9.994624e-01
9.969869e-01
9.892724e-01
9.704712e-01
9.338082e-01
8.782861e-01
7.661913e-01
6.869170e-01
5.219817e-01
4.232981e-01
2.619799e-01
1.899673e-01
1.068027e-01
5.994676e-02
3.037915e-02
1.380920e-02
5.623477e-03
2.054408e-03
6.820827e-04
2.157564e-04
7.238350e-05
2.761308e-05
1.385971e-05
9.944829e-06
4.482243e-06
1.463504e-06
6.426097e-07
3.188388e-07
1.668912e-07
8.802241e-08
4.054892e-08
2.048665e-08
1.077962e-08
8.609251e-09
5.567961e-09
2.848369e-09
1.367096e-09
6.443576e-10
2.892874e-10
9.833930e-11
1.465928e-11
4.752714e-12
4.784444e-12
3.437275e-12
1.852411e-12
8.296933e-13
4.061296e-13
1.358377e-13
1.794851e-14
2.307289e-15
2.360116e-15
1.038187e-15
5.192462e-16
2.632213e-16
6.400666e-17
4.263168e-17
2.052256e-17
8.228291e-18
5.791141e-18
4.848893e-18
2.565114e-18
1.000000e+00