# vtk DataFile Version 3.0
MUSCL
ASCII
DATASET STRUCTURED_POINTS
DIMENSIONS 80 80 1
ORIGIN 0 0 0
SPACING 0.0125 0.0125 1
POINT_DATA 6400
SCALARS Temperature double 1
LOOKUP_TABLE default
0.000000e+00
-6.739985e-01
-1.939410e-01
-2.456941e-02
-3.488223e-04
3.232710e-05
-2.398458e-07
-2.068163e-07
-1.236707e-07
-6.656535e-08
-3.601439e-08
-1.870234e-08
-9.044633e-09
-4.048127e-09
-1.795256e-09
-4.016460e-10
-3.534140e-13
1.723039e-12
1.473238e-12
5.429258e-13
1.882865e-13
7.044555e-14
2.602233e-14
9.143354e-15
2.963621e-15
9.443740e-16
3.316680e-16
1.352846e-16
6.062142e-17
2.431706e-17
7.262394e-18
1.442956e-18
1.914959e-19
1.642559e-20
1.416829e-21
2.902264e-22
1.004187e-22
4.117684e-23
2.791942e-23
3.530569e-23
4.482569e-23
3.823223e-23
4.286313e-24
-1.090653e-24
-6.835034e-25
-5.725063e-25
-3.435401e-25
-1.907620e-25
-1.005786e-25
-4.984675e-26
-2.503145e-26
-1.078446e-26
-1.957855e-27
-1.499451e-29
3.499271e-29
1.603198e-29
5.694310e-30
2.112713e-30
8.012686e-31
3.041179e-31
1.142734e-31
4.230136e-32
1.536007e-32
5.624929e-33
7.628348e-34
-1.292146e-35
-4.707996e-36
-2.050985e-36
-9.100286e-37
-4.133862e-37
-1.844053e-37
-7.778544e-38
-3.159259e-38
-1.287857e-38
-5.514116e-39
-1.248479e-39
5.105844e-41
4.691897e-41
1.329279e-41
3.115507e-42
1.326002e+00
6.739985e-01
1.939410e-01
2.456941e-02
3.488223e-04
-3.232710e-05
2.398458e-07
2.068163e-07
1.236707e-07
6.656535e-08
3.601439e-08
1.870234e-08
9.044633e-09
4.048127e-09
1.795256e-09
4.016460e-10
3.534140e-13
-1.723039e-12
-1.473238e-12
-5.429258e-13
-1.882865e-13
-7.044555e-14
-2.602233e-14
-9.143354e-15
-2.963621e-15
-9.443740e-16
-3.316680e-16
-1.352846e-16
-6.062142e-17
-2.431706e-17
-7.262394e-18
-1.442956e-18
-1.914959e-19
-1.642559e-20
-1.416829e-21
-2.902264e-22
-1.004187e-22
-4.117684e-23
-2.791942e-23
-3.530569e-23
-4.482569e-23
-3.823223e-23
-4.286313e-24
1.090653e-24
6.835034e-25
5.725063e-25
3.435401e-25
1.907620e-25
1.005786e-25
4.984675e-26
2.503145e-26
1.078446e-26
1.957855e-27
1.499451e-29
-3.499271e-29
-1.603198e-29
-5.694310e-30
-2.112713e-30
-8.012686e-31
-3.041179e-31
-1.142734e-31
-4.230136e-32
-1.536007e-32
-5.624929e-33
-7.628348e-34
1.292146e-35
4.707996e-36
2.050985e-36
9.100286e-37
4.133862e-37
1.844053e-37
7.778544e-38
3.159259e-38
1.287857e-38
5.514116e-39
1.248479e-39
-5.105844e-41
-4.691897e-41
-1.329279e-41
-3.115507e-42
1.041962e+00
9.580378e-01
5.985711e-01
2.398003e-01
5.879872e-02
3.839378e-03
-2.940322e-05
-4.875678e-05
-2.701133e-05
-1.280076e-05
-5.693612e-06
-2.450017e-06
-1.034843e-06
-2.812231e-07
-6.142136e-10
1.502954e-09
1.014793e-09
3.861580e-10
5.566997e-11
1.677884e-12
-1.073121e-13
-5.796616e-14
-1.099066e-14
2.096053e-15
-1.063937e-17
-6.224900e-16
2.452303e-16
1.618601e-16
2.889931e-17
-5.732757e-18
-4.664296e-18
-7.713663e-19
2.300706e-20
8.358545e-20
4.251486e-20
1.638319e-20
7.574694e-21
4.183089e-21
1.779892e-21
1.022445e-21
5.324832e-23
-4.683146e-23
-4.155402e-23
-6.216676e-23
-7.475187e-23
-5.859119e-23
-3.123320e-23
-1.699339e-23
-8.995030e-24
-4.808287e-24
-2.179169e-24
-5.490482e-25
4.189514e-28
5.299546e-27
3.752361e-27
1.665972e-27
6.887372e-28
2.723350e-28
1.045579e-28
3.910033e-29
1.423400e-29
5.125321e-30
1.489390e-30
2.036066e-31
-2.449281e-34
-2.997522e-33
-1.110069e-33
-3.572747e-34
-1.255414e-34
-4.741387e-35
-1.908929e-35
-8.013326e-36
-3.432586e-36
-1.170882e-36
-1.191221e-37
2.226828e-38
5.858420e-39
2.595113e-39
9.007739e-40
2.796349e-40
1.000577e+00
9.994234e-01
8.851520e-01
5.931873e-01
2.706294e-01
8.397082e-02
1.577717e-02
1.198932e-03
4.679482e-04
1.916675e-04
6.870953e-05
7.519197e-06
-1.124750e-06
-9.198377e-07
-5.273424e-07
-1.900140e-07
-1.567119e-08
9.338077e-10
5.212383e-10
6.211938e-11
-1.178201e-11
-1.712758e-12
-7.793461e-13
-3.736268e-13
-1.675845e-13
-6.982343e-14
-2.433464e-14
-9.596274e-15
-3.636195e-15
-1.116477e-15
-3.025332e-16
-8.457349e-17
-2.696020e-17
-8.514954e-18
-2.861816e-18
-1.062106e-18
-3.419329e-19
-5.272564e-20
6.623879e-21
2.489469e-21
1.354724e-21
8.134162e-22
3.610069e-22
2.614536e-23
-5.398576e-23
-5.802980e-23
6.335991e-24
-6.769123e-24
-1.488553e-24
-2.282972e-24
-1.911285e-24
-3.527908e-25
-9.157295e-25
-6.177158e-25
-2.788315e-25
-1.220028e-25
-5.187360e-26
-2.136763e-26
-8.552450e-27
-3.319974e-27
-1.148546e-27
-2.856159e-28
-4.225949e-29
-3.565774e-30
1.585089e-31
2.248185e-31
7.739285e-34
-3.603666e-33
2.295948e-34
2.081248e-33
1.411820e-33
4.876513e-34
8.819017e-35
-6.499386e-36
-2.210902e-36
-1.279860e-36
-5.395951e-37
-2.019529e-37
-7.130539e-38
-3.156115e-38
9.999023e-01
1.000098e+00
9.863125e-01
8.523423e-01
5.808276e-01
2.961562e-01
9.869602e-02
2.176406e-02
5.382866e-04
1.595338e-04
1.249378e-04
8.477146e-05
3.929319e-05
8.038026e-06
-4.792879e-07
-3.750663e-07
-2.547689e-07
-7.501099e-08
-1.463747e-09
7.256813e-10
4.426950e-10
1.765856e-10
7.589612e-11
3.347530e-11
1.279152e-11
2.240883e-12
-4.314892e-14
-1.760135e-14
-3.997948e-15
-5.467870e-16
-2.700218e-16
-7.835426e-17
-2.093074e-17
-6.675369e-18
8.726497e-18
-7.768359e-19
-9.138064e-19
-6.900804e-19
-4.036415e-19
-2.146225e-19
-1.148333e-19
-6.108368e-20
-3.236586e-20
-1.703439e-20
-8.719961e-21
-4.397411e-21
-2.205451e-21
-1.062262e-21
-5.064817e-22
-2.248814e-22
-8.409878e-23
-1.700229e-23
-1.098798e-24
-4.257328e-25
-7.070648e-26
-4.635746e-27
-1.077694e-26
-1.064056e-26
-8.123818e-27
-1.532207e-27
-1.309531e-28
-1.884879e-28
-1.272890e-29
7.097042e-30
2.837080e-30
4.925204e-31
5.316128e-31
2.188458e-31
6.788032e-32
1.729881e-32
3.950795e-33
1.794227e-33
1.020750e-33
5.285007e-34
2.408631e-34
1.025835e-34
4.044130e-35
1.508095e-35
5.752998e-36
1.601164e-36
9.999662e-01
1.000034e+00
1.000312e+00
9.653295e-01
8.295598e-01
5.646623e-01
3.366563e-01
1.266745e-01
3.464372e-02
2.488261e-03
1.090900e-04
6.403723e-05
5.823692e-05
4.218072e-05
1.932572e-05
3.557456e-06
-2.063125e-07
-2.092759e-07
-1.290916e-07
-5.567467e-08
-2.370264e-08
-1.019814e-08
-3.644716e-09
-2.905897e-10
3.102635e-11
1.470470e-11
5.915947e-12
4.625492e-13
-1.102861e-14
-2.230147e-14
-1.058090e-14
-4.247845e-15
-1.710774e-15
-7.295569e-16
-2.780846e-16
-9.825143e-18
5.401180e-18
4.144488e-19
-3.599890e-19
1.704229e-19
-7.668424e-20
-1.317414e-20
-6.841357e-21
-1.351479e-20
-7.106925e-22
-2.573954e-21
-1.523680e-21
-9.270272e-22
2.125978e-22
1.181216e-23
-6.303811e-23
-5.651289e-23
-4.344247e-23
-2.273331e-23
-1.092603e-23
-5.045590e-24
-1.912091e-24
-5.330035e-25
-9.399273e-26
-3.851040e-26
-3.010291e-26
-1.049817e-26
-3.039711e-27
-1.026079e-27
-3.507470e-28
-1.103741e-28
-3.660920e-29
-8.592032e-30
-5.536892e-31
-4.899513e-31
-2.992821e-31
-1.287552e-31
-5.263004e-32
-2.223959e-32
-9.433239e-33
-3.933331e-33
-1.626227e-33
-5.729934e-34
-2.456431e-35
1.614752e-36
9.999937e-01
1.000006e+00
1.000030e+00
9.984495e-01
9.484116e-01
8.110436e-01
5.427256e-01
3.576794e-01
1.478155e-01
4.994797e-02
9.424592e-03
1.337716e-04
3.427161e-05
3.448913e-05
3.130382e-05
2.061147e-05
1.088348e-05
4.606284e-06
1.951187e-06
7.733056e-07
1.471987e-07
-1.147127e-08
-7.470249e-09
-4.930164e-09
-1.478675e-09
8.105254e-12
2.787141e-11
1.068824e-11
4.293629e-12
1.819562e-12
7.395603e-13
2.889359e-13
1.061887e-13
1.377093e-14
-4.347386e-16
-3.317422e-16
-1.895291e-16
-8.526000e-17
-3.926031e-17
-1.892017e-17
-8.850404e-18
-4.120210e-18
-1.925934e-18
-9.071202e-19
-4.333817e-19
-1.986288e-19
-9.050603e-20
-4.061452e-20
-1.802299e-20
-7.343199e-21
-1.913083e-21
-1.210960e-22
-7.103332e-24
-1.009828e-23
-9.844431e-24
-4.980907e-24
-3.786829e-24
-2.318238e-24
-1.317423e-24
-4.417413e-25
-5.532340e-26
-5.007474e-27
-2.548442e-27
-5.386072e-28
-1.502994e-28
-1.172661e-28
-5.833997e-29
-2.998885e-29
-1.550923e-29
-1.158440e-30
-2.490570e-31
-4.997682e-32
-2.458693e-32
-2.125766e-32
2.485613e-32
1.122355e-32
1.835941e-33
-3.823463e-34
-5.965361e-34
-3.252108e-34
9.999982e-01
1.000002e+00
1.000005e+00
9.999976e-01
9.919642e-01
9.348721e-01
7.949337e-01
5.167914e-01
3.728808e-01
1.554161e-01
5.817316e-02
1.602407e-02
2.093830e-03
1.632412e-05
1.904210e-05
2.020193e-05
1.104515e-05
4.502010e-06
1.926521e-06
1.092866e-06
8.056259e-07
3.404478e-07
4.956172e-08
-5.076524e-09
-4.243766e-09
-2.550003e-09
-1.088939e-09
-4.462580e-10
-1.853680e-10
-7.941073e-11
-2.003232e-11
-2.160575e-13
1.434718e-13
1.089764e-13
4.994358e-14
2.232213e-14
1.023144e-14
4.664913e-15
2.083359e-15
9.140726e-16
3.991817e-16
1.759480e-16
7.026893e-17
1.567370e-17
1.243553e-18
5.469849e-19
3.566783e-19
1.249097e-19
1.183617e-20
-7.661493e-21
-4.883523e-21
-2.815590e-21
-1.322957e-21
-6.004448e-22
-2.247719e-22
-4.185791e-23
-2.715746e-24
-2.082129e-24
-1.533247e-24
-1.037716e-24
-5.611927e-25
-2.525418e-25
-9.403700e-26
-1.500340e-26
-1.217297e-28
8.432426e-29
6.481310e-29
-2.458128e-30
-1.509604e-29
-1.867001e-29
-1.854850e-29
-1.144844e-29
-5.865143e-30
-2.761262e-30
-1.276368e-30
-5.186579e-31
-5.826056e-32
-2.221944e-33
9.939519e-34
1.581122e-34
9.999991e-01
1.000001e+00
1.000000e+00
1.000032e+00
9.999209e-01
9.851087e-01
9.220073e-01
7.796231e-01
5.212625e-01
3.783564e-01
1.648276e-01
6.657271e-02
2.040931e-02
4.181196e-03
3.871806e-04
8.124638e-05
4.720147e-05
2.523271e-05
9.425482e-06
2.147904e-06
8.350916e-07
6.588194e-07
4.104408e-07
1.946538e-07
8.301195e-08
3.447442e-08
1.431486e-08
6.021808e-09
1.163721e-09
-5.819611e-11
-6.417555e-11
-3.982730e-11
-1.769951e-11
-7.810270e-12
-3.439633e-12
-1.513685e-12
-6.647977e-13
-2.911284e-13
-1.266793e-13
-5.622006e-14
-1.478093e-14
7.575097e-17
8.776214e-17
7.513038e-17
3.490187e-17
8.780068e-18
3.025779e-18
1.012340e-18
2.819568e-19
7.946882e-20
1.382430e-20
-5.868137e-22
-1.254072e-21
-8.502513e-22
-5.163164e-22
-3.126703e-22
-1.278943e-22
-2.995537e-23
-1.408634e-24
-8.758436e-25
-4.127998e-25
-2.441150e-25
-1.472411e-25
-9.886195e-26
-4.422996e-26
-8.374577e-27
1.870630e-28
9.656178e-29
6.052306e-29
-5.650450e-30
-6.646302e-30
-7.103343e-30
-2.032632e-30
4.773576e-33
-3.690274e-31
-4.595230e-31
-4.503154e-31
-2.602207e-31
-1.173463e-31
-4.982438e-32
9.999997e-01
1.000000e+00
1.000000e+00
1.000014e+00
1.000013e+00
9.989422e-01
9.787895e-01
9.080835e-01
7.698822e-01
5.221353e-01
3.809922e-01
1.770313e-01
7.555489e-02
2.530438e-02
5.880407e-03
4.391391e-04
3.077079e-05
2.890868e-05
2.425325e-05
1.346895e-05
3.906291e-06
6.723976e-07
4.179273e-07
2.186846e-07
8.353471e-08
3.130655e-08
1.446098e-08
6.200590e-09
4.606666e-09
2.533369e-09
1.138079e-09
5.106518e-10
2.290778e-10
1.013352e-10
4.377895e-11
1.836709e-11
7.805211e-12
2.176242e-12
-2.465605e-14
-5.688890e-14
-5.098485e-14
-2.726474e-14
-5.009408e-15
8.956222e-17
6.004979e-17
2.831341e-17
3.077602e-18
9.571714e-19
1.425019e-19
-1.997184e-20
-3.714036e-20
-1.684173e-20
-5.140884e-21
-9.313527e-22
-3.156123e-22
-2.859683e-22
-2.304306e-22
-1.460392e-22
-7.036021e-23
-2.858668e-23
-1.200879e-23
-3.364135e-24
-3.445349e-25
-9.009871e-26
-6.798849e-26
-4.188920e-26
-2.132866e-26
-9.718117e-27
-4.391663e-27
-1.986235e-27
-9.177528e-28
-4.422369e-28
-2.213607e-28
-1.152151e-28
-3.955702e-29
-1.931916e-30
1.129775e-31
2.619360e-31
1.359709e-31
4.422731e-32
9.999999e-01
1.000000e+00
1.000000e+00
1.000003e+00
1.000013e+00
9.999976e-01
9.972691e-01
9.710764e-01
8.970082e-01
7.616220e-01
5.236635e-01
3.740080e-01
1.873629e-01
8.570498e-02
3.192957e-02
8.866706e-03
1.231186e-03
5.807650e-05
2.409432e-05
2.107055e-05
1.534394e-05
6.794106e-06
1.902591e-06
6.172934e-07
3.813560e-07
2.092566e-07
9.273817e-08
2.279657e-08
4.170858e-09
2.205586e-09
7.189938e-10
3.615422e-10
2.218297e-10
6.687960e-11
2.247100e-11
1.504963e-11
7.302180e-12
5.977609e-12
3.271022e-12
8.448406e-13
-3.030001e-14
-3.933996e-14
-2.949515e-14
-1.268130e-14
-1.879018e-15
7.694884e-17
5.187128e-17
2.671826e-17
1.167050e-17
4.663015e-18
2.744709e-19
-3.771980e-20
-3.562637e-20
-1.899470e-20
-8.117212e-21
-1.789413e-21
-1.742662e-22
-1.269508e-22
1.821933e-23
1.306904e-23
-1.143422e-23
-9.452424e-24
-4.585903e-24
-1.093687e-24
-4.495408e-26
-2.759349e-26
-2.035565e-26
-4.317148e-27
-3.964543e-27
-1.969158e-27
-6.116309e-28
-3.848672e-28
-1.586355e-28
-1.017275e-28
-8.198444e-29
-5.275848e-29
-2.738312e-29
-1.469101e-29
-5.824371e-30
-1.582608e-30
1.000000e+00
1.000000e+00
1.000000e+00
9.999999e-01
1.000007e+00
1.000011e+00
1.000016e+00
9.943101e-01
9.639284e-01
8.861985e-01
7.589361e-01
5.118760e-01
3.892663e-01
1.920274e-01
9.233640e-02
3.716203e-02
1.168357e-02
2.335958e-03
6.656965e-05
1.409419e-05
1.587925e-05
1.324730e-05
7.195467e-06
2.068891e-06
4.019740e-07
2.054688e-07
1.688614e-07
1.123930e-07
5.692537e-08
2.813092e-08
1.408755e-08
6.764693e-09
3.256951e-09
1.551680e-09
7.663861e-10
2.551344e-10
3.255781e-11
6.008718e-12
4.371010e-12
2.942967e-12
1.639990e-12
4.130119e-13
-1.920323e-14
-2.261426e-14
-1.521606e-14
-7.264586e-15
-3.291231e-15
-8.986035e-16
6.401646e-18
5.636315e-18
5.092688e-18
2.832258e-18
1.114359e-18
5.180898e-20
-2.136498e-20
-9.333898e-21
-4.635145e-21
-1.785766e-21
-4.957597e-22
-3.826543e-23
2.236785e-23
-8.495766e-24
-8.079308e-24
-5.165116e-24
-2.433388e-24
-9.296306e-25
-3.606064e-25
-1.497310e-25
-6.446573e-26
-2.968975e-26
-1.452256e-26
-6.892477e-27
-2.428249e-27
-5.010841e-28
-6.757341e-29
-4.024107e-29
-1.844065e-29
-1.445952e-29
-1.181314e-29
-7.061171e-30
1.000000e+00
1.000000e+00
1.000000e+00
1.000000e+00
1.000002e+00
1.000008e+00
1.000008e+00
9.997637e-01
9.914878e-01
9.548815e-01
8.817898e-01
7.454278e-01
5.158934e-01
3.937633e-01
1.985949e-01
9.888044e-02
4.198618e-02
1.455687e-02
3.641018e-03
3.477408e-04
1.657325e-05
1.571629e-05
1.268287e-05
9.351077e-06
4.039379e-06
8.651542e-07
1.492183e-07
1.054078e-07
5.259505e-08
2.473013e-08
1.205416e-08
4.944882e-09
3.047210e-09
1.597126e-09
7.734096e-10
6.377453e-10
3.576171e-10
9.390081e-11
6.071447e-12
2.449122e-12
1.891444e-12
1.401613e-12
7.413227e-13
3.023145e-13
9.744560e-14
6.253002e-15
-3.850944e-15
-2.922111e-15
-1.642443e-15
-7.200664e-16
-3.153243e-16
-5.260620e-17
2.496350e-18
1.402339e-18
7.466443e-19
3.173499e-19
7.520009e-20
-7.346630e-22
-9.207197e-22
-3.039260e-22
1.478026e-23
1.429574e-22
1.233005e-22
6.301729e-23
3.166956e-23
1.559557e-23
7.504130e-24
3.232854e-24
1.177020e-24
2.869194e-25
-1.505983e-26
-8.285969e-27
-6.994217e-27
-4.730076e-27
-2.383985e-27
-1.206576e-27
-6.046802e-28
-1.668944e-28
-6.286644e-30
-5.994866e-30
1.000000e+00
1.000000e+00
1.000000e+00
1.000000e+00
1.000000e+00
1.000003e+00
1.000007e+00
9.999112e-01
9.998722e-01
9.863638e-01
9.508783e-01
8.715796e-01
7.384697e-01
5.161365e-01
3.971737e-01
2.051741e-01
1.052063e-01
4.641522e-02
1.747156e-02
5.022918e-03
6.082457e-04
1.709823e-05
8.297566e-06
8.793307e-06
7.620067e-06
4.975847e-06
2.453187e-06
1.126318e-06
5.237122e-07
2.594277e-07
1.243724e-07
6.212451e-08
3.184521e-08
1.206850e-08
2.325345e-09
6.503033e-10
5.299035e-10
3.938279e-10
1.784782e-10
3.838239e-11
5.544497e-13
8.374688e-13
6.647232e-13
3.022181e-13
1.976506e-13
1.166990e-13
5.190865e-14
2.012822e-14
5.855433e-15
-1.765805e-16
-3.209498e-16
-2.887071e-16
-1.545587e-16
-4.652267e-17
3.928775e-19
4.417851e-19
3.265662e-19
1.827680e-19
7.213789e-20
6.574730e-21
-6.564719e-22
-1.476410e-22
9.385067e-23
4.667324e-23
2.353737e-23
3.662801e-24
5.113186e-24
4.559447e-24
3.010649e-24
1.712856e-24
8.465351e-25
3.387974e-25
1.258724e-25
4.134380e-26
1.093102e-26
1.650089e-27
-2.494068e-28
-5.462317e-28
-3.964744e-28
-1.342059e-28
1.000000e+00
1.000000e+00
1.000000e+00
1.000000e+00
1.000000e+00
1.000000e+00
1.000004e+00
9.999637e-01
1.000002e+00
9.977169e-01
9.838787e-01
9.447049e-01
8.634759e-01
7.326196e-01
5.157411e-01
4.001982e-01
2.115955e-01
1.117417e-01
5.058455e-02
2.041326e-02
7.043056e-03
1.772831e-03
2.202033e-04
1.593495e-05
4.959050e-06
9.858554e-07
1.284457e-06
9.121368e-07
3.965379e-07
2.204766e-07
3.902048e-08
5.676834e-08
3.232814e-08
2.672124e-08
1.622489e-08
5.177108e-09
5.303177e-10
3.955553e-10
3.088223e-10
2.029590e-10
9.878298e-11
4.572865e-11
1.663214e-11
2.550476e-12
9.804246e-14
6.690477e-14
5.245359e-14
1.963564e-14
1.366426e-14
7.761477e-15
2.974926e-15
5.635496e-16
-1.404611e-16
-1.271874e-16
-7.313124e-17
-3.301517e-17
-9.216594e-18
2.930609e-20
1.043820e-19
8.275528e-20
3.796981e-20
1.819757e-20
8.717928e-21
4.092553e-21
1.703145e-21
4.916124e-22
6.136395e-23
-1.058451e-23
-7.532728e-25
-7.003173e-26
2.623717e-25
2.134900e-25
1.172978e-25
4.183947e-26
5.592581e-27
-4.498957e-27
-8.186850e-28
-4.743222e-28
-4.949987e-28
-3.707236e-28
1.000000e+00
1.000000e+00
1.000000e+00
1.000000e+00
1.000000e+00
1.000000e+00
1.000002e+00
9.999851e-01
9.999963e-01
9.999688e-01
9.962299e-01
9.802219e-01
9.386760e-01
8.558992e-01
7.276416e-01
5.149871e-01
4.022860e-01
2.167463e-01
1.190035e-01
5.371133e-02
2.139798e-02
7.347986e-03
2.229691e-03
7.202404e-04
3.200435e-04
1.407934e-04
6.373377e-05
2.887562e-05
1.274620e-05
5.611682e-06
2.671125e-06
8.413293e-07
1.118355e-07
2.273882e-08
2.116659e-08
1.675910e-08
8.727918e-09
2.298286e-09
2.936231e-10
1.622502e-10
9.655144e-11
4.612478e-11
3.400269e-11
2.108878e-11
9.701398e-12
4.480630e-12
1.541718e-12
1.495865e-13
1.395394e-14
5.490637e-15
3.877299e-15
2.559330e-15
1.301968e-15
4.684777e-16
6.414974e-17
-3.119133e-17
-2.770218e-17
-1.586515e-17
-6.843486e-18
-2.936557e-18
-1.272812e-18
-5.542622e-19
-1.825607e-19
-2.143857e-20
1.747920e-21
1.837177e-21
1.078378e-21
4.728653e-22
1.985195e-22
8.360295e-23
3.472401e-23
1.428353e-23
5.521511e-24
1.335273e-24
3.142440e-26
-6.112576e-27
-1.377203e-26
-7.762601e-27
-6.138328e-28
-2.289938e-28
1.000000e+00
1.000000e+00
1.000000e+00
1.000000e+00
1.000000e+00
1.000000e+00
1.000001e+00
9.999939e-01
9.999933e-01
9.999959e-01
9.996727e-01
9.947756e-01
9.764166e-01
9.334734e-01
8.476070e-01
7.249940e-01
5.158336e-01
4.044599e-01
2.192305e-01
1.311544e-01
6.151356e-02
2.463285e-02
8.073490e-03
1.878807e-03
3.480576e-04
1.298124e-04
6.149987e-05
2.896200e-05
9.637738e-06
4.502146e-06
2.684687e-06
2.160824e-06
1.171547e-06
2.999341e-07
2.112498e-08
1.660431e-08
1.321599e-08
9.268865e-09
4.970990e-09
2.493171e-09
9.765535e-10
2.123460e-10
3.481943e-11
1.588222e-11
8.700051e-12
4.390269e-12
3.469353e-12
2.073487e-12
8.630937e-13
1.816467e-13
8.972220e-16
2.211407e-15
1.215227e-15
7.169219e-16
3.949332e-16
1.815898e-16
6.029551e-17
1.663503e-17
3.132727e-18
-4.572099e-19
-8.924609e-19
-5.335914e-19
-3.279693e-19
-2.537893e-19
-1.368892e-19
-6.271000e-20
-2.735107e-20
-1.166994e-20
-4.859971e-21
-2.052753e-21
-6.803587e-22
-4.759229e-23
9.367156e-24
5.502238e-24
2.757697e-24
6.988928e-25
-1.389370e-26
-1.329884e-26
-1.207505e-26
-5.860758e-27
1.000000e+00
1.000000e+00
1.000000e+00
1.000000e+00
1.000000e+00
1.000000e+00
1.000000e+00
9.999986e-01
9.999943e-01
9.999953e-01
9.999992e-01
9.992744e-01
9.929839e-01
9.723980e-01
9.301927e-01
8.318910e-01
7.228507e-01
5.194897e-01
4.071006e-01
2.222697e-01
1.368094e-01
6.858267e-02
3.014408e-02
1.135427e-02
3.501056e-03
9.586743e-04
4.569637e-04
2.354272e-04
1.167284e-04
4.105342e-05
8.078804e-06
2.300847e-06
1.751177e-06
1.294097e-06
5.785859e-07
1.271878e-07
8.989379e-09
6.881772e-09
2.411792e-09
2.344593e-09
1.882691e-09
1.213923e-09
6.061242e-10
2.784179e-10
1.063854e-10
1.935506e-11
2.216598e-12
1.965905e-12
1.364988e-12
8.843742e-13
4.437649e-13
1.563221e-13
2.029760e-14
-9.108493e-16
-5.953448e-17
1.226344e-16
-7.696338e-17
-1.064413e-16
-4.740674e-17
-2.805993e-17
-8.369752e-18
-2.755047e-18
-8.761884e-19
-2.981245e-19
-1.380319e-19
-5.562301e-20
-2.507441e-20
-1.069100e-20
-4.237583e-21
-2.226358e-21
-1.550478e-21
-9.438521e-22
-3.515219e-22
-4.502555e-23
1.895973e-24
2.346714e-24
1.274600e-24
4.933823e-25
1.688549e-25
4.216062e-26
1.000000e+00
1.000000e+00
1.000000e+00
1.000000e+00
1.000000e+00
1.000000e+00
1.000000e+00
1.000000e+00
9.999972e-01
9.999957e-01
9.999960e-01
9.999404e-01
9.989895e-01
9.901942e-01
9.711549e-01
9.209899e-01
8.231609e-01
7.195649e-01
5.218303e-01
4.078225e-01
2.280887e-01
1.365961e-01
6.948438e-02
3.124203e-02
1.173436e-02
3.376731e-03
5.597105e-04
2.164341e-04
1.226001e-04
9.846706e-05
5.463550e-05
1.556643e-05
1.572787e-06
1.264534e-06
1.001506e-06
6.662132e-07
3.382355e-07
1.582468e-07
6.098754e-08
1.167104e-08
1.633757e-09
1.176866e-09
5.881791e-10
2.830621e-10
2.194737e-10
1.356971e-10
6.561149e-11
2.007843e-11
1.713657e-12
6.107071e-13
4.446250e-13
3.423100e-13
2.063385e-13
9.324618e-14
3.982111e-14
1.700492e-14
7.454823e-15
3.225498e-15
1.389515e-15
6.217280e-16
1.919056e-16
4.467664e-18
-2.862089e-18
-1.458894e-18
-7.794223e-19
-4.071628e-19
-2.036165e-19
-9.439394e-20
-3.222924e-20
-5.594321e-21
-1.078111e-21
-8.693565e-22
-6.977691e-22
-4.293970e-22
-2.081349e-22
-8.673788e-23
-3.064635e-23
-4.234821e-24
2.366161e-25
1.385831e-25
1.000000e+00
1.000000e+00
1.000000e+00
1.000000e+00
1.000000e+00
1.000000e+00
1.000000e+00
1.000000e+00
9.999994e-01
9.999971e-01
9.999975e-01
9.999732e-01
9.999790e-01
9.975465e-01
9.896651e-01
9.671715e-01
9.134973e-01
8.160495e-01
7.166325e-01
5.214832e-01
4.107455e-01
2.331812e-01
1.463280e-01
7.660908e-02
3.642315e-02
1.520041e-02
5.245260e-03
1.330900e-03
2.961906e-04
1.022743e-04
8.295333e-05
6.135476e-05
2.867456e-05
7.568975e-06
1.112783e-06
5.795106e-07
3.421700e-07
1.559374e-07
1.219951e-07
7.969895e-08
3.864057e-08
1.818571e-08
6.432748e-09
9.831643e-10
1.829210e-10
9.840626e-11
6.982918e-11
5.920817e-11
3.526431e-11
1.321107e-11
2.261614e-12
1.849911e-13
1.526404e-13
3.846266e-14
3.687948e-14
1.597938e-14
6.221171e-15
2.964474e-15
6.892223e-16
5.584045e-16
5.020888e-16
2.951065e-16
1.330011e-16
5.812091e-17
2.606405e-17
9.163797e-18
7.946406e-19
-1.701975e-19
-8.834554e-20
-4.984345e-20
-1.931613e-20
-4.267633e-21
-7.843882e-22
-3.654644e-22
-2.129485e-22
-8.034598e-23
-6.037334e-23
-3.736459e-23
-1.830381e-23
-6.854314e-24
1.000000e+00
1.000000e+00
1.000000e+00
1.000000e+00
1.000000e+00
1.000000e+00
1.000000e+00
1.000000e+00
1.000000e+00
9.999985e-01
9.999988e-01
9.999864e-01
9.999957e-01
9.996234e-01
9.969443e-01
9.879670e-01
9.629930e-01
9.062407e-01
8.112415e-01
7.119431e-01
5.210387e-01
4.143441e-01
2.385491e-01
1.469020e-01
7.671064e-02
3.692759e-02
1.602181e-02
5.928301e-03
1.813049e-03
4.329948e-04
8.978796e-05
6.133167e-05
4.657959e-05
3.058386e-05
1.463469e-05
5.593418e-06
2.431399e-06
7.449150e-07
1.369433e-07
7.115586e-08
3.889605e-08
1.813639e-08
1.484856e-08
9.073683e-09
4.382347e-09
1.489522e-09
1.622848e-10
5.513534e-11
3.295552e-11
2.673590e-11
1.661251e-11
8.014041e-12
3.583510e-12
1.619396e-12
7.325900e-13
3.247007e-13
1.424710e-13
6.554654e-14
2.234438e-14
2.139786e-15
5.262749e-16
2.643172e-16
3.630783e-17
4.598250e-17
2.624376e-17
1.953307e-17
1.260925e-17
5.067074e-18
8.132669e-19
-3.115544e-20
-3.967100e-20
-2.444929e-20
-1.139418e-20
-5.104284e-21
-2.468166e-21
-6.693995e-22
-7.263077e-23
-2.118454e-23
-1.450085e-23
-2.403859e-24
1.000000e+00
1.000000e+00
1.000000e+00
1.000000e+00
1.000000e+00
1.000000e+00
1.000000e+00
1.000000e+00
1.000000e+00
9.999994e-01
9.999995e-01
9.999935e-01
9.999936e-01
9.999906e-01
9.993543e-01
9.962217e-01
9.860060e-01
9.586274e-01
8.993115e-01
8.088012e-01
7.066810e-01
5.196461e-01
4.154457e-01
2.429441e-01
1.590940e-01
8.336652e-02
4.025739e-02
1.764512e-02
6.890921e-03
2.327185e-03
6.586174e-04
1.579382e-04
5.714183e-05
3.563759e-05
2.231462e-05
1.026345e-05
3.856941e-06
2.482817e-06
1.409836e-06
7.106564e-07
2.962314e-07
6.680473e-08
1.293504e-08
8.727016e-09
4.576676e-09
3.630742e-09
2.246774e-09
8.518286e-10
1.420925e-10
2.614544e-11
1.533751e-11
8.163349e-12
2.835888e-12
1.376941e-12
6.450291e-13
1.494081e-13
1.358732e-13
6.624003e-14
5.267022e-14
3.178711e-14
1.473401e-14
6.608159e-15
3.112057e-15
1.170353e-15
1.641227e-16
4.020600e-18
1.188404e-17
9.780394e-18
6.414761e-18
3.391799e-18
1.499211e-18
6.599443e-19
2.364626e-19
3.085769e-20
-1.699230e-21
-2.246983e-21
-1.353933e-21
-6.227738e-22
-2.930333e-22
-1.177467e-22
1.000000e+00
1.000000e+00
1.000000e+00
1.000000e+00
1.000000e+00
1.000000e+00
1.000000e+00
1.000000e+00
1.000000e+00
9.999997e-01
9.999998e-01
9.999981e-01
9.999938e-01
9.999954e-01
9.999338e-01
9.991145e-01
9.953364e-01
9.837984e-01
9.547050e-01
8.884968e-01
8.115140e-01
7.049044e-01
5.184680e-01
4.165105e-01
2.444460e-01
1.648739e-01
8.847532e-02
4.338771e-02
1.930814e-02
7.729908e-03
2.729110e-03
8.215439e-04
2.220753e-04
7.414980e-05
4.134526e-05
2.723041e-05
1.269053e-05
3.101834e-06
1.371874e-06
7.047314e-07
5.609406e-07
3.649705e-07
1.922068e-07
6.821505e-08
1.079608e-08
3.535063e-09
2.111172e-09
1.699367e-09
1.092565e-09
5.238865e-10
2.396708e-10
1.131324e-10
5.173864e-11
2.371990e-11
1.092414e-11
5.278126e-12
1.730261e-12
2.104068e-13
1.893696e-14
2.295718e-14
6.198066e-15
5.443889e-15
2.819302e-15
2.359850e-15
1.565658e-15
6.376193e-16
1.107362e-16
6.419283e-18
5.737055e-18
3.389908e-18
3.599015e-19
6.295207e-19
4.745613e-19
2.876686e-19
1.328120e-19
5.509556e-20
2.266714e-20
9.199577e-21
3.735492e-21
1.352230e-21
1.000000e+00
1.000000e+00
1.000000e+00
1.000000e+00
1.000000e+00
1.000000e+00
1.000000e+00
1.000000e+00
1.000000e+00
9.999999e-01
9.999998e-01
9.999998e-01
9.999966e-01
9.999954e-01
9.999942e-01
9.998323e-01
9.989870e-01
9.937571e-01
9.846094e-01
9.402962e-01
8.937562e-01
7.989766e-01
7.032652e-01
5.214560e-01
4.170918e-01
2.477918e-01
1.704516e-01
9.362627e-02
4.703564e-02
2.141305e-02
8.812256e-03
3.219951e-03
1.014199e-03
2.723015e-04
7.443455e-05
3.879810e-05
2.970036e-05
1.964138e-05
9.059607e-06
2.902915e-06
5.530092e-07
3.438185e-07
1.956280e-07
1.563883e-07
9.944188e-08
4.133323e-08
9.704117e-09
1.736378e-09
9.856705e-10
5.235321e-10
2.293536e-10
7.694364e-11
5.163012e-11
1.530390e-11
9.265115e-12
5.370854e-12
4.193975e-12
2.504643e-12
1.161101e-12
5.194118e-13
2.461444e-13
9.375377e-14
1.513204e-14
2.059093e-15
1.509616e-15
1.221624e-15
7.924290e-16
3.866322e-16
1.798331e-16
8.638244e-17
3.343107e-17
5.201858e-18
1.630992e-19
1.591708e-19
6.251778e-20
1.270228e-20
6.888748e-21
3.249686e-21
2.818672e-21
4.143368e-22
1.000000e+00
1.000000e+00
1.000000e+00
1.000000e+00
1.000000e+00
1.000000e+00
1.000000e+00
1.000000e+00
1.000000e+00
1.000000e+00
9.999999e-01
9.999999e-01
9.999991e-01
9.999965e-01
9.999965e-01
9.999254e-01
9.999071e-01
9.969017e-01
9.968225e-01
9.754888e-01
9.435789e-01
8.871454e-01
7.906845e-01
7.010500e-01
5.219216e-01
4.173890e-01
2.502863e-01
1.743522e-01
9.759533e-02
5.028516e-02
2.346210e-02
9.945191e-03
3.807650e-03
1.289186e-03
3.711104e-04
8.480765e-05
3.007146e-05
1.977078e-05
1.462038e-05
9.795691e-06
4.966541e-06
1.859284e-06
5.275504e-07
1.410819e-07
9.776805e-08
7.819669e-08
5.039783e-08
2.553063e-08
1.175768e-08
5.446770e-09
2.601541e-09
1.276698e-09
5.836071e-10
2.887606e-10
1.017372e-10
1.536946e-11
2.359819e-12
1.550320e-12
9.509509e-13
3.339004e-13
2.231640e-13
1.896637e-13
1.238363e-13
4.917299e-14
9.304954e-15
1.143452e-15
5.159873e-16
2.710500e-16
7.467432e-17
8.529206e-17
6.845721e-17
4.306456e-17
1.967355e-17
8.916202e-18
3.897475e-18
1.712831e-18
7.451340e-19
3.232498e-19
1.421272e-19
5.933650e-20
1.000000e+00
1.000000e+00
1.000000e+00
1.000000e+00
1.000000e+00
1.000000e+00
1.000000e+00
1.000000e+00
1.000000e+00
1.000000e+00
1.000000e+00
9.999999e-01
9.999999e-01
9.999982e-01
9.999983e-01
9.999669e-01
9.999663e-01
9.986207e-01
9.986175e-01
9.925111e-01
9.750010e-01
9.412464e-01
8.823203e-01
7.836500e-01
6.994332e-01
5.244353e-01
4.205981e-01
2.545737e-01
1.789931e-01
1.014117e-01
5.352707e-02
2.546948e-02
1.099252e-02
4.331009e-03
1.563637e-03
5.133578e-04
1.501904e-04
4.587439e-05
1.920125e-05
1.192678e-05
7.899449e-06
4.263816e-06
2.310229e-06
1.149503e-06
4.112637e-07
8.494998e-08
4.718100e-08
2.213351e-08
1.189263e-08
4.690492e-09
2.507453e-09
1.021785e-09
5.912091e-10
2.847333e-10
2.329287e-10
1.430698e-10
6.876123e-11
3.219555e-11
1.491804e-11
5.844388e-12
9.764173e-13
1.445770e-13
1.190455e-13
9.366028e-14
6.079594e-14
2.975122e-14
1.396252e-14
6.719279e-15
2.510766e-15
3.940936e-16
6.065601e-17
4.242959e-17
1.438043e-17
6.871899e-18
2.145526e-18
1.382405e-18
6.448562e-19
6.749079e-20
9.491890e-20
5.531458e-20
1.000000e+00
1.000000e+00
1.000000e+00
1.000000e+00
1.000000e+00
1.000000e+00
1.000000e+00
1.000000e+00
1.000000e+00
1.000000e+00
1.000000e+00
1.000000e+00
1.000000e+00
9.999992e-01
9.999997e-01
9.999846e-01
9.999934e-01
9.993826e-01
9.993614e-01
9.980292e-01
9.905932e-01
9.731033e-01
9.372853e-01
8.797044e-01
7.715097e-01
6.918044e-01
5.232603e-01
4.221719e-01
2.585475e-01
1.839854e-01
1.048231e-01
5.699703e-02
2.782236e-02
1.219549e-02
4.823948e-03
1.739084e-03
5.748741e-04
1.816354e-04
6.021903e-05
2.384584e-05
1.276957e-05
7.912463e-06
3.734158e-06
1.695476e-06
1.044318e-06
6.775504e-07
3.396538e-07
1.659227e-07
8.660088e-08
4.371804e-08
2.160478e-08
1.103826e-08
4.525636e-09
9.671111e-10
2.009582e-10
1.290243e-10
5.015778e-11
3.222432e-11
1.467106e-11
1.158474e-11
7.555700e-12
3.113621e-12
6.144153e-13
7.625072e-14
6.140564e-14
1.934038e-14
1.423962e-14
6.779241e-15
5.434506e-15
3.445436e-15
1.655863e-15
7.709878e-16
3.534708e-16
1.611350e-16
7.293641e-17
3.290215e-17
1.458143e-17
6.868713e-18
2.176428e-18
3.340801e-19
1.000000e+00
1.000000e+00
1.000000e+00
1.000000e+00
1.000000e+00
1.000000e+00
1.000000e+00
1.000000e+00
1.000000e+00
1.000000e+00
1.000000e+00
1.000000e+00
1.000000e+00
9.999996e-01
9.999997e-01
9.999930e-01
9.999979e-01
9.997702e-01
9.995480e-01
9.994765e-01
9.970094e-01
9.892917e-01
9.704873e-01
9.338261e-01
8.783062e-01
7.662068e-01
6.869237e-01
5.219685e-01
4.232710e-01
2.619386e-01
1.899240e-01
1.067571e-01
5.990480e-02
3.034429e-02
1.378288e-02
5.605290e-03
2.042623e-03
6.751550e-04
2.121602e-04
7.079013e-05
2.713574e-05
1.381935e-05
1.006149e-05
4.677663e-06
1.638432e-06
6.616849e-07
3.324513e-07
1.521736e-07
8.381052e-08
4.201158e-08
1.911536e-08
1.086958e-08
8.888629e-09
5.622237e-09
2.804875e-09
1.338306e-09
6.729066e-10
2.753185e-10
5.525834e-11
1.148387e-11
7.349572e-12
5.912361e-12
3.814620e-12
1.862839e-12
8.691280e-13
4.109928e-13
1.589529e-13
2.594116e-14
5.600434e-15
3.436470e-15
1.435317e-15
7.709875e-16
2.838107e-16
1.419222e-16
3.665640e-17
3.133586e-17
1.076845e-17
6.640291e-18
5.519319e-18
2.778909e-18
1.000000e+00
1.000000e+00
1.000000e+00
1.000000e+00
1.000000e+00