# vtk DataFile Version 3.0
MUSCL
ASCII
DATASET STRUCTURED_POINTS
DIMENSIONS 80 80 1
ORIGIN 0 0 0
SPACING 0.0125 0.0125 1
POINT_DATA 6400
SCALARS Temperature double 1
LOOKUP_TABLE default
0.000000e+00
-6.739998e-01
-1.939385e-01
-2.456354e-02
-3.505453e-04
2.059355e-05
5.497137e-07
-3.699143e-07
-2.088774e-07
-8.514267e-08
-3.368735e-08
-1.369067e-08
-6.099442e-09
-2.977171e-09
-1.318263e-09
-5.339743e-10
-1.110121e-11
1.109445e-12
1.074655e-12
3.514909e-13
2.484336e-14
5.258050e-16
3.939010e-15
4.524682e-15
2.841413e-15
1.480700e-15
8.156357e-16
4.415642e-16
2.247664e-16
1.061776e-16
4.682068e-17
1.963813e-17
7.870044e-18
2.866613e-18
8.935271e-19
2.307001e-19
5.010090e-20
1.222175e-20
5.935456e-21
3.723793e-21
1.259030e-21
-9.372784e-24
-7.216786e-24
-6.180332e-24
-3.527286e-24
-1.695801e-24
-7.242014e-25
-2.865938e-25
-1.068807e-25
-3.782354e-26
-1.280788e-26
-4.203712e-27
-1.406532e-27
-4.716982e-28
-1.028986e-28
-5.539245e-30
4.279797e-31
4.051984e-31
1.692107e-31
6.822029e-32
2.749692e-32
1.110789e-32
4.543055e-33
1.630544e-33
-5.449344e-35
2.000647e-35
-1.138900e-35
-4.172205e-37
-1.186159e-38
-1.564100e-37
-7.270392e-38
-3.200677e-38
-1.735873e-38
-2.256663e-39
-1.108986e-39
1.742317e-40
6.425632e-41
3.499821e-41
1.461373e-41
8.349370e-42
1.326000e+00
6.739998e-01
1.939385e-01
2.456354e-02
3.505453e-04
-2.059355e-05
-5.497137e-07
3.699143e-07
2.088774e-07
8.514267e-08
3.368735e-08
1.369067e-08
6.099442e-09
2.977171e-09
1.318263e-09
5.339743e-10
1.110121e-11
-1.109445e-12
-1.074655e-12
-3.514909e-13
-2.484336e-14
-5.258050e-16
-3.939010e-15
-4.524682e-15
-2.841413e-15
-1.480700e-15
-8.156357e-16
-4.415642e-16
-2.247664e-16
-1.061776e-16
-4.682068e-17
-1.963813e-17
-7.870044e-18
-2.866613e-18
-8.935271e-19
-2.307001e-19
-5.010090e-20
-1.222175e-20
-5.935456e-21
-3.723793e-21
-1.259030e-21
9.372784e-24
7.216786e-24
6.180332e-24
3.527286e-24
1.695801e-24
7.242014e-25
2.865938e-25
1.068807e-25
3.782354e-26
1.280788e-26
4.203712e-27
1.406532e-27
4.716982e-28
1.028986e-28
5.539245e-30
-4.279797e-31
-4.051984e-31
-1.692107e-31
-6.822029e-32
-2.749692e-32
-1.110789e-32
-4.543055e-33
-1.630544e-33
5.449344e-35
-2.000647e-35
1.138900e-35
4.172205e-37
1.186159e-38
1.564100e-37
7.270392e-38
3.200677e-38
1.735873e-38
2.256663e-39
1.108986e-39
-1.742317e-40
-6.425632e-41
-3.499821e-41
-1.461373e-41
-8.349370e-42
1.041969e+00
9.580315e-01
5.985836e-01
2.398341e-01
5.879617e-02
3.871120e-03
1.191975e-04
-3.920372e-05
-1.881389e-05
-8.428020e-06
-3.985425e-06
-1.845004e-06
-7.937071e-07
-1.994299e-07
-7.373851e-11
8.091313e-10
7.661705e-10
3.428041e-10
6.809701e-11
3.452630e-12
1.001142e-13
1.000299e-14
6.322342e-15
-1.293644e-16
-1.926949e-15
-1.099975e-15
1.010663e-15
1.336588e-15
7.600365e-16
4.762269e-16
2.819969e-16
1.216846e-16
3.999598e-17
1.000838e-17
1.937467e-18
2.994934e-19
4.418617e-20
4.703911e-21
-3.979827e-21
-2.344768e-21
-1.111552e-21
-2.528933e-21
-1.564192e-21
-7.164001e-22
-3.240922e-22
-1.420443e-22
-5.998535e-23
-2.430036e-23
-9.452969e-24
-3.493030e-24
-1.250277e-24
-4.413661e-25
-1.474213e-25
-3.443570e-26
-1.159455e-27
8.099761e-30
9.275472e-29
4.710856e-29
1.909226e-29
8.082239e-30
3.651993e-30
1.450694e-30
3.276744e-31
-1.598775e-32
-8.094082e-33
-3.092425e-33
-1.142635e-33
-3.258035e-34
-9.932206e-35
-3.059423e-35
-9.005893e-36
-3.084881e-36
-2.462414e-38
2.857165e-38
1.354975e-38
9.783631e-39
7.636725e-39
3.605683e-39
1.369826e-39
6.887634e-40
9.999846e-01
1.000015e+00
8.880296e-01
5.934920e-01
2.706081e-01
8.398474e-02
1.614587e-02
1.251853e-03
4.954763e-04
2.158419e-04
7.775806e-05
9.843023e-06
-1.041094e-06
-7.807226e-07
-4.546435e-07
-1.651057e-07
-1.961323e-08
1.188682e-09
3.969470e-10
7.732044e-11
-6.710561e-13
-2.135760e-12
-1.080515e-12
-4.159299e-13
-1.599510e-13
-6.268537e-14
-2.784246e-15
1.330302e-15
2.072318e-15
7.756069e-16
1.843911e-16
9.430300e-17
2.702196e-17
8.263243e-18
-6.169034e-19
-2.204559e-18
-1.417086e-18
-6.467004e-19
-3.017724e-19
-1.172285e-19
-2.804459e-20
-1.313714e-21
-1.515943e-21
-3.586784e-22
-1.588519e-22
-8.033565e-23
-5.497834e-23
-2.405380e-23
4.179612e-24
-2.391170e-24
-4.034613e-25
-9.783744e-27
-7.242888e-26
-6.482314e-26
-4.466234e-26
-1.928911e-26
-8.510420e-27
-3.790124e-27
-1.711429e-27
-7.093822e-28
-1.811327e-28
1.776300e-30
2.376128e-30
1.654485e-30
6.961058e-31
2.529141e-31
8.608115e-32
2.817579e-32
8.977475e-33
2.556476e-33
3.823973e-34
-1.029493e-35
-9.955783e-36
-4.643414e-36
-2.574786e-36
-1.335203e-36
-5.847415e-37
-2.261538e-37
-8.899490e-38
-5.689754e-38
9.998856e-01
1.000114e+00
9.864029e-01
8.523693e-01
5.809096e-01
2.961286e-01
9.866156e-02
2.191600e-02
7.187667e-04
1.697716e-04
1.427106e-04
9.253780e-05
4.180776e-05
8.145623e-06
-2.491637e-07
-3.381125e-07
-2.277293e-07
-7.110225e-08
1.223522e-10
5.321182e-10
4.233469e-10
1.726413e-10
7.156756e-11
3.186206e-11
1.223126e-11
6.635152e-13
-3.413120e-14
-3.178043e-14
-4.447247e-15
3.041144e-15
3.665689e-15
2.095929e-15
9.176664e-16
3.665717e-16
1.383323e-16
4.971072e-17
1.650760e-17
5.445718e-18
1.262395e-18
1.673595e-19
-4.647580e-20
-7.356386e-20
-4.379447e-20
-2.065686e-20
-9.681579e-21
-4.439049e-21
-2.020118e-21
-8.874860e-22
-3.601608e-22
-1.170989e-22
-2.940041e-23
-2.519086e-25
6.286244e-26
1.268570e-26
-2.207837e-26
1.298189e-26
3.294162e-27
-1.600758e-27
-1.611765e-27
-6.529333e-29
-1.163115e-28
-3.306431e-28
-1.991480e-28
-8.091771e-29
-3.160812e-29
-1.147252e-29
-3.655867e-30
-9.521401e-31
-1.287931e-31
1.872194e-33
3.501173e-33
1.594966e-33
6.108279e-34
2.676913e-34
1.226605e-34
5.486707e-35
2.379860e-35
1.086167e-35
5.931163e-36
2.558897e-36
9.999710e-01
1.000029e+00
1.000224e+00
9.654794e-01
8.295742e-01
5.645298e-01
3.365193e-01
1.268074e-01
3.491376e-02
2.693247e-03
-8.426174e-05
6.974294e-05
6.281786e-05
4.497037e-05
1.988728e-05
3.076696e-06
-2.251520e-07
-1.992918e-07
-1.214546e-07
-5.232817e-08
-2.227404e-08
-9.734663e-09
-3.096330e-09
-2.161963e-11
3.772403e-11
1.512827e-11
7.676440e-12
1.337807e-12
-3.503162e-14
-1.445319e-14
-7.694345e-15
-2.382349e-15
-6.784985e-16
-1.899202e-16
-5.203632e-17
-3.685471e-18
6.810851e-18
5.670048e-18
3.023313e-18
1.041330e-18
1.397611e-19
-3.683967e-20
-4.192415e-20
-1.946905e-20
-7.575258e-21
-3.569509e-21
-1.881959e-21
-1.128926e-21
-7.091681e-22
-3.854793e-22
-2.005379e-22
-9.546096e-23
-3.692497e-23
-1.401865e-23
-5.660324e-24
-2.475513e-24
-1.087110e-24
-4.440618e-25
-1.403353e-25
-3.401964e-26
-6.981101e-27
-1.388611e-27
-3.226465e-28
-1.197228e-28
-5.301064e-29
-2.452037e-29
-1.133825e-29
-5.012259e-30
-2.119336e-30
-7.854927e-31
-2.565389e-31
-8.626183e-32
-3.172507e-32
-1.290242e-32
-5.692635e-33
-2.547444e-33
-1.180261e-33
-5.369878e-34
-9.679158e-35
4.153303e-36
9.999925e-01
1.000007e+00
1.000049e+00
9.983685e-01
9.484649e-01
8.110558e-01
5.426356e-01
3.577066e-01
1.480337e-01
5.019108e-02
9.821681e-03
3.563055e-04
5.980532e-05
3.853847e-05
3.326086e-05
2.187395e-05
1.135141e-05
4.743596e-06
1.986121e-06
7.741661e-07
1.312123e-07
-7.733936e-09
-7.341396e-09
-4.852242e-09
-1.204763e-09
-1.004465e-11
9.362602e-12
7.290228e-12
3.688196e-12
1.731122e-12
8.049286e-13
3.613275e-13
1.506637e-13
5.704956e-14
1.203143e-14
-2.220707e-16
-2.009597e-17
-3.970890e-17
-3.364579e-17
-1.644290e-17
-7.823493e-18
-3.681723e-18
-1.717267e-18
-7.869209e-19
-3.454574e-19
-1.543852e-19
-4.145793e-20
-1.252559e-21
-7.074581e-22
-3.501718e-22
-1.597776e-22
-8.846278e-23
1.528744e-23
2.005885e-24
-2.115268e-24
-1.196789e-24
-6.615184e-25
-3.714370e-25
-1.352849e-25
-3.409270e-26
3.157149e-27
1.963254e-27
7.965992e-28
3.021414e-28
1.029620e-28
3.189366e-29
8.049058e-30
1.319457e-30
-3.920332e-31
-3.305079e-31
-9.881696e-32
-5.436026e-32
6.264027e-32
4.094054e-32
1.512644e-32
1.695479e-34
-9.743134e-34
-7.588347e-34
-5.258024e-34
-2.787119e-34
9.999971e-01
1.000003e+00
1.000008e+00
1.000124e+00
9.919256e-01
9.348466e-01
7.949224e-01
5.168285e-01
3.729900e-01
1.556683e-01
5.846762e-02
1.593526e-02
2.071506e-03
6.203322e-05
2.577847e-05
2.002328e-05
1.135026e-05
4.396050e-06
1.918585e-06
1.118767e-06
8.144087e-07
3.365459e-07
4.310791e-08
-7.129073e-09
-4.268859e-09
-2.475903e-09
-1.108524e-09
-4.862518e-10
-2.088934e-10
-8.916386e-11
-3.757905e-11
-8.709853e-12
6.229028e-14
9.117013e-14
6.538645e-14
3.257219e-14
1.353478e-14
5.550227e-15
2.312290e-15
9.896755e-16
4.328802e-16
1.924036e-16
7.914547e-17
1.607259e-17
-4.518929e-19
-2.153191e-19
-1.478257e-19
-8.152136e-20
-4.334502e-20
-1.984265e-20
-8.775454e-21
-3.685543e-21
-1.560662e-21
-6.590555e-22
-2.604725e-22
-6.409123e-23
-1.298136e-23
-9.173655e-24
-4.814962e-24
-1.738455e-24
-5.839096e-25
-2.076449e-25
-7.154966e-26
-2.599029e-26
-9.119567e-27
-2.839871e-27
-7.115685e-28
-9.142288e-29
4.901285e-30
1.405252e-30
-3.048782e-30
-4.938144e-30
-2.560629e-30
-1.097157e-30
-4.853804e-31
-1.241199e-31
-2.574607e-33
9.811631e-34
-1.451348e-34
-2.311594e-34
9.999992e-01
1.000001e+00
1.000000e+00
1.000027e+00
9.998501e-01
9.850243e-01
9.218161e-01
7.795013e-01
5.212768e-01
3.785068e-01
1.650213e-01
6.660840e-02
2.045783e-02
4.286552e-03
3.840107e-04
8.284688e-05
4.898451e-05
2.664797e-05
9.682819e-06
2.149174e-06
7.913654e-07
6.670936e-07
4.208538e-07
2.077917e-07
8.713942e-08
3.647371e-08
1.534064e-08
6.708268e-09
1.935727e-09
-5.407738e-11
-4.673533e-11
-3.354580e-11
-1.816324e-11
-7.981302e-12
-3.474456e-12
-1.497521e-12
-6.455200e-13
-2.794961e-13
-1.211785e-13
-5.364645e-14
-1.412074e-14
1.034951e-16
9.700611e-17
8.033415e-17
3.829894e-17
1.117428e-17
4.539084e-18
1.551768e-18
5.030743e-19
1.740435e-19
5.940821e-20
1.762924e-20
3.756825e-21
2.384695e-22
-2.949954e-22
-2.826065e-22
-1.580482e-22
-3.822852e-23
-4.604861e-24
-1.522218e-24
-4.776547e-25
-1.743565e-25
-6.584407e-26
-3.496105e-26
-1.737373e-26
-8.571119e-27
-4.004026e-27
-1.765278e-27
-7.237288e-28
-2.710201e-28
-4.913918e-29
-1.566405e-31
-1.143907e-30
-8.114650e-31
-5.870133e-31
-4.463525e-31
-2.672791e-31
-1.278571e-31
-5.550320e-32
-2.150909e-32
9.999998e-01
1.000000e+00
1.000000e+00
1.000011e+00
1.000012e+00
9.989141e-01
9.786685e-01
9.079856e-01
7.698510e-01
5.222289e-01
3.810806e-01
1.771809e-01
7.567108e-02
2.537066e-02
5.896561e-03
4.457439e-04
2.635483e-05
3.286479e-05
2.599349e-05
1.377575e-05
3.823761e-06
7.332661e-07
4.174918e-07
2.132351e-07
8.863704e-08
3.414809e-08
1.477635e-08
6.535837e-09
5.355881e-09
3.085217e-09
1.308229e-09
5.446287e-10
2.249106e-10
9.324742e-11
3.876625e-11
1.598873e-11
6.836883e-12
1.925724e-12
-2.475912e-14
-5.547565e-14
-4.921322e-14
-2.587927e-14
-4.885082e-15
7.826438e-17
6.638440e-17
3.141024e-17
4.908528e-18
6.724564e-19
4.317447e-19
9.446142e-20
3.580783e-20
1.882479e-20
2.001498e-21
-6.717307e-22
-3.058092e-22
-2.563429e-22
-2.143601e-22
-1.574728e-22
-8.318474e-23
-4.028373e-23
-1.838187e-23
-5.593984e-24
-4.092522e-25
4.745725e-26
1.089758e-26
8.868248e-28
-6.263757e-28
-1.338913e-27
-8.147372e-28
-3.409277e-28
-2.565438e-28
-2.409199e-28
-9.305174e-29
-2.847314e-30
1.940979e-30
5.417580e-31
9.572058e-33
-7.969316e-32
4.107637e-32
3.337895e-32
9.999999e-01
1.000000e+00
1.000000e+00
1.000001e+00
1.000012e+00
1.000025e+00
9.972388e-01
9.709610e-01
8.969016e-01
7.615722e-01
5.236852e-01
3.741430e-01
1.874841e-01
8.577511e-02
3.195387e-02
8.884280e-03
1.234321e-03
6.028803e-05
2.624108e-05
2.193121e-05
1.570836e-05
6.792577e-06
1.798926e-06
6.496740e-07
3.920083e-07
2.188188e-07
9.736449e-08
2.481993e-08
4.991304e-09
2.014773e-09
1.226433e-09
3.881633e-10
1.918270e-10
9.006043e-11
3.917855e-11
1.123610e-11
6.245273e-12
5.162704e-12
2.814127e-12
6.925021e-13
-4.048543e-14
-3.855056e-14
-2.835707e-14
-1.237653e-14
-1.728013e-15
8.283823e-17
5.760862e-17
2.931808e-17
1.323712e-17
4.029876e-18
3.778085e-19
-3.574066e-21
-5.287297e-21
-9.562916e-21
-6.486951e-21
-7.601614e-22
-1.471188e-22
-1.363729e-22
-8.134776e-23
-3.781270e-23
-2.340391e-23
-1.563792e-23
-8.795955e-24
-4.000626e-24
-1.253019e-24
-2.121686e-25
5.011945e-27
3.951092e-27
2.375029e-27
8.305842e-28
1.039775e-28
-2.204400e-28
-2.262556e-28
-1.728960e-28
-8.642645e-29
-4.360423e-29
-2.143055e-29
-1.023921e-29
-4.901982e-30
-1.841078e-30
1.000000e+00
1.000000e+00
1.000000e+00
1.000000e+00
1.000006e+00
1.000009e+00
9.999735e-01
9.941752e-01
9.638672e-01
8.861347e-01
7.589003e-01
5.119568e-01
3.893655e-01
1.921121e-01
9.237916e-02
3.718371e-02
1.167071e-02
2.300569e-03
5.446518e-05
1.068269e-05
1.709880e-05
1.328105e-05
7.016809e-06
1.853783e-06
3.536030e-07
2.212752e-07
1.824678e-07
1.234443e-07
6.453625e-08
3.112448e-08
1.459618e-08
6.955717e-09
3.215344e-09
1.478597e-09
7.217653e-10
2.389521e-10
3.415432e-11
5.713900e-12
3.880308e-12
2.758330e-12
1.494283e-12
3.506348e-13
-1.974547e-14
-2.210499e-14
-1.507504e-14
-7.010488e-15
-3.116858e-15
-8.415697e-16
1.670794e-17
1.045998e-17
7.843016e-18
3.612878e-18
1.290220e-18
9.217764e-20
-5.451252e-21
-1.031151e-20
-5.519243e-21
-2.348226e-21
-7.359706e-22
-1.224506e-22
-6.640217e-24
1.393238e-23
-9.647300e-25
-4.107827e-24
-3.344623e-24
-1.923050e-24
-9.237136e-25
-3.865521e-25
-1.550061e-25
-6.049346e-26
-2.430957e-26
-5.075176e-27
-3.186243e-28
-1.656163e-28
-3.165113e-29
-2.372917e-29
-2.109819e-29
-8.702069e-31
-4.369137e-30
-7.410540e-31
1.000000e+00
1.000000e+00
1.000000e+00
1.000000e+00
1.000002e+00
1.000007e+00
1.000010e+00
9.997533e-01
9.914654e-01
9.548441e-01
8.817567e-01
7.454384e-01
5.159490e-01
3.938283e-01
1.986587e-01
9.890560e-02
4.196856e-02
1.451109e-02
3.613173e-03
3.461711e-04
1.802644e-05
1.596033e-05
1.322945e-05
9.670003e-06
4.064379e-06
8.047345e-07
1.910827e-07
8.168807e-08
5.706980e-08
2.340267e-08
1.442609e-08
6.056670e-09
3.017919e-09
1.439266e-09
7.077591e-10
5.707893e-10
3.180501e-10
8.135551e-11
3.959464e-12
2.699498e-12
1.982141e-12
1.386871e-12
7.334440e-13
3.066148e-13
9.571881e-14
3.641856e-15
-3.276873e-15
-2.845322e-15
-1.577295e-15
-7.137716e-16
-2.768008e-16
-3.881787e-17
1.948166e-18
1.436865e-18
7.718858e-19
3.366719e-19
7.441619e-20
-1.922421e-21
-1.362995e-21
-7.101869e-22
-1.592419e-22
-6.242941e-24
1.728983e-23
1.581657e-23
7.004324e-24
2.912827e-24
1.131813e-24
3.853452e-25
9.049973e-26
-2.777684e-27
-1.994970e-26
-1.911720e-26
-1.026488e-26
-4.656517e-27
-2.247141e-27
-1.102205e-27
-5.384851e-28
-2.604705e-28
-1.229016e-28
-4.835892e-29
1.000000e+00
1.000000e+00
1.000000e+00
1.000000e+00
1.000000e+00
1.000002e+00
1.000007e+00
9.999129e-01
9.998735e-01
9.863319e-01
9.508248e-01
8.715337e-01
7.384508e-01
5.161668e-01
3.972287e-01
2.052108e-01
1.051898e-01
4.636432e-02
1.743076e-02
5.002944e-03
5.962897e-04
2.996389e-05
9.215407e-06
9.745643e-06
8.328087e-06
5.345945e-06
2.658886e-06
1.251676e-06
5.987221e-07
2.878450e-07
1.371258e-07
6.768318e-08
3.299282e-08
1.283529e-08
2.793942e-09
5.341282e-10
4.671887e-10
3.573693e-10
1.651134e-10
3.402746e-11
1.529274e-12
9.795710e-13
6.007531e-13
3.088723e-13
2.186454e-13
1.291701e-13
5.666876e-14
2.308350e-14
6.072171e-15
-4.465216e-16
-4.396569e-16
-2.951288e-16
-1.482728e-16
-4.363282e-17
-2.348413e-19
4.294795e-19
3.372005e-19
1.762809e-19
7.129538e-20
1.267485e-20
-7.661936e-23
-8.946944e-23
-8.856182e-24
1.092064e-23
-1.095111e-23
-1.391998e-23
-3.142197e-24
-1.832673e-25
-1.857149e-25
-1.236674e-27
-1.853319e-26
-1.521527e-26
-4.136269e-27
-1.645402e-27
-9.931111e-28
-9.070045e-28
-4.335173e-28
-1.587438e-28
-1.236137e-28
-4.332163e-29
1.000000e+00
1.000000e+00
1.000000e+00
1.000000e+00
1.000000e+00
1.000000e+00
1.000004e+00
9.999634e-01
9.999681e-01
9.977052e-01
9.838609e-01
9.446807e-01
8.634471e-01
7.326073e-01
5.157629e-01
4.002159e-01
2.115761e-01
1.116857e-01
5.053614e-02
2.038573e-02
7.038670e-03
1.762207e-03
2.207672e-04
5.871078e-06
7.936637e-06
5.148361e-06
2.467169e-06
2.340077e-07
3.066590e-07
2.475038e-07
1.227598e-07
4.676822e-08
3.024106e-08
2.630063e-08
1.619214e-08
5.491389e-09
5.328500e-10
3.571705e-10
2.735575e-10
1.813550e-10
9.001874e-11
4.059180e-11
1.463937e-11
2.056967e-12
5.361312e-14
1.141131e-13
3.525865e-14
2.162508e-14
1.670767e-14
9.139853e-15
3.484794e-15
7.217335e-16
-1.295477e-16
-1.208036e-16
-7.163119e-17
-3.279964e-17
-8.749678e-18
1.916919e-19
1.125473e-19
8.316744e-20
4.211903e-20
1.839517e-20
8.052306e-21
3.501272e-21
1.526968e-21
5.492019e-22
9.131807e-23
-4.091377e-24
-4.836785e-25
-7.524122e-25
-6.517854e-25
-3.628596e-25
-1.902452e-25
-9.745910e-26
-4.840624e-26
-2.292288e-26
-1.086090e-26
-4.938694e-27
-2.256883e-27
-8.783327e-28
1.000000e+00
1.000000e+00
1.000000e+00
1.000000e+00
1.000000e+00
1.000000e+00
1.000002e+00
9.999852e-01
9.999914e-01
9.999072e-01
9.963181e-01
9.802232e-01
9.386331e-01
8.558547e-01
7.276150e-01
5.149751e-01
4.022591e-01
2.166866e-01
1.189514e-01
5.368344e-02
2.139604e-02
7.347647e-03
2.240438e-03
6.916999e-04
3.093382e-04
1.395255e-04
6.324999e-05
2.890237e-05
1.320640e-05
5.948932e-06
2.786203e-06
9.325937e-07
1.342068e-07
2.120482e-08
2.144931e-08
1.668519e-08
8.806380e-09
2.161115e-09
2.249672e-10
1.826411e-10
8.623324e-11
3.993706e-11
3.095122e-11
1.943415e-11
9.033932e-12
4.163461e-12
1.385352e-12
1.001631e-13
1.292779e-14
6.397544e-15
4.583327e-15
2.895769e-15
1.458701e-15
5.430765e-16
5.593794e-17
-3.349373e-17
-2.836991e-17
-1.626045e-17
-7.317272e-18
-3.210787e-18
-1.394946e-18
-6.010210e-19
-2.643888e-19
-9.151146e-20
-7.772272e-21
1.044734e-21
6.792459e-22
3.540400e-22
1.473814e-22
6.082800e-23
2.518890e-23
1.056155e-23
4.468601e-24
1.889550e-24
7.857068e-25
3.127323e-25
1.151250e-25
3.785844e-26
1.058838e-26
2.329398e-27
1.000000e+00
1.000000e+00
1.000000e+00
1.000000e+00
1.000000e+00
1.000000e+00
1.000001e+00
9.999940e-01
9.999939e-01
9.999921e-01
9.996719e-01
9.947639e-01
9.763845e-01
9.334372e-01
8.475743e-01
7.249641e-01
5.158019e-01
4.044192e-01
2.191833e-01
1.311412e-01
6.151869e-02
2.464167e-02
8.094416e-03
1.874735e-03
3.142357e-04
1.239845e-04
6.289163e-05
2.355071e-05
1.237236e-05
5.738467e-06
2.789534e-06
2.327577e-06
1.282648e-06
3.264149e-07
2.002675e-08
1.299481e-08
1.232168e-08
9.518399e-09
4.726629e-09
2.314432e-09
9.047170e-10
1.819756e-10
3.403603e-11
1.962232e-11
6.288133e-12
4.047092e-12
3.354486e-12
2.029444e-12
7.941719e-13
1.895102e-13
9.004319e-15
2.713506e-15
1.295274e-15
7.268873e-16
4.276000e-16
1.979526e-16
6.861250e-17
2.013010e-17
4.938067e-18
6.506516e-19
-3.536206e-19
-4.156681e-19
-2.695945e-19
-1.971221e-19
-1.209180e-19
-5.631781e-20
-2.439160e-20
-1.040033e-20
-4.372190e-21
-1.817167e-21
-7.493306e-22
-3.084767e-22
-1.269662e-22
-5.179810e-23
-2.056056e-23
-7.778226e-24
-2.768116e-24
-9.099974e-25
-2.797048e-25
-8.425969e-26
1.000000e+00
1.000000e+00
1.000000e+00
1.000000e+00
1.000000e+00
1.000000e+00
1.000000e+00
9.999985e-01
9.999953e-01
9.999957e-01
9.999999e-01
9.992702e-01
9.929680e-01
9.723836e-01
9.301838e-01
8.318772e-01
7.228309e-01
5.194657e-01
4.070800e-01
2.222707e-01
1.368233e-01
6.859778e-02
3.016392e-02
1.137725e-02
3.512307e-03
9.545662e-04
4.534884e-04
2.288856e-04
1.163316e-04
4.102548e-05
8.097581e-06
2.341256e-06
1.916625e-06
1.401223e-06
6.250744e-07
1.425125e-07
1.111792e-08
9.429824e-09
4.267698e-09
2.282953e-09
1.769863e-09
1.156188e-09
5.834805e-10
2.827878e-10
9.561706e-11
1.289713e-11
3.064837e-12
2.040240e-12
1.438135e-12
9.153315e-13
4.669377e-13
1.660041e-13
2.412904e-14
1.064068e-15
9.019857e-17
1.526044e-16
1.611251e-17
-2.845188e-18
-1.134744e-17
-1.103232e-17
-5.826416e-18
-2.748247e-18
-1.019268e-18
-2.129610e-19
-1.083570e-19
-4.607485e-20
-2.395258e-20
-7.377977e-21
-3.467583e-21
-1.634762e-21
-7.576685e-22
-2.458729e-22
-5.716471e-23
-4.539355e-23
-1.968730e-23
-2.375614e-24
-7.760680e-25
-3.149261e-25
-2.101006e-25
-9.057995e-26
1.000000e+00
1.000000e+00
1.000000e+00
1.000000e+00
1.000000e+00
1.000000e+00
1.000000e+00
1.000000e+00
9.999975e-01
9.999966e-01
9.999970e-01
9.999420e-01
9.989892e-01
9.901974e-01
9.711651e-01
9.209887e-01
8.231440e-01
7.195437e-01
5.218180e-01
4.078292e-01
2.281055e-01
1.366143e-01
6.949988e-02
3.127478e-02
1.172863e-02
3.363066e-03
5.549047e-04
2.149772e-04
1.256996e-04
1.021741e-04
5.715532e-05
1.622887e-05
1.977537e-06
1.382274e-06
1.071763e-06
6.975247e-07
3.482400e-07
1.630504e-07
6.287709e-08
1.147613e-08
1.230110e-09
1.116950e-09
3.857498e-10
2.789184e-10
2.193768e-10
1.334036e-10
6.146847e-11
1.898628e-11
1.712739e-12
7.671213e-13
4.439739e-13
3.367213e-13
2.037413e-13
9.104543e-14
3.849953e-14
1.683925e-14
7.442174e-15
3.252811e-15
1.397598e-15
6.242168e-16
1.909819e-16
9.197727e-19
-1.937927e-18
-1.670865e-18
-8.046980e-19
-4.096915e-19
-2.136008e-19
-1.080199e-19
-4.782309e-20
-1.126412e-20
-2.403128e-21
-3.841600e-21
-2.277800e-21
-1.033416e-21
-4.537811e-22
-1.917400e-22
-8.136194e-23
-2.453963e-23
-1.242019e-24
3.649088e-25
1.000000e+00
1.000000e+00
1.000000e+00
1.000000e+00
1.000000e+00
1.000000e+00
1.000000e+00
1.000000e+00
9.999995e-01
9.999978e-01
9.999980e-01
9.999751e-01
9.999569e-01
9.974934e-01
9.896713e-01
9.671717e-01
9.134824e-01
8.160340e-01
7.166244e-01
5.214949e-01
4.107650e-01
2.332015e-01
1.463459e-01
7.663892e-02
3.643267e-02
1.520426e-02
5.251212e-03
1.334328e-03
3.008023e-04
1.045058e-04
8.535954e-05
6.355291e-05
3.000472e-05
7.728451e-06
1.172427e-06
5.566734e-07
2.920056e-07
1.656474e-07
1.267066e-07
8.042010e-08
3.807406e-08
1.773733e-08
6.200149e-09
8.113677e-10
1.459548e-10
1.188352e-10
6.817428e-11
5.439449e-11
3.284507e-11
1.242385e-11
2.182910e-12
3.480239e-13
1.853428e-13
6.116292e-14
3.912908e-14
1.732698e-14
7.548517e-15
3.251682e-15
8.614862e-16
6.308289e-16
5.021917e-16
2.959877e-16
1.336805e-16
5.959400e-17
2.662936e-17
9.506381e-18
1.600851e-18
-8.958511e-20
-8.499227e-20
-5.848789e-20
-3.438046e-20
-6.757016e-21
2.861530e-21
2.174149e-21
5.483842e-22
1.436230e-23
-6.403901e-23
-5.163183e-23
-3.129868e-23
-1.224362e-23
1.000000e+00
1.000000e+00
1.000000e+00
1.000000e+00
1.000000e+00
1.000000e+00
1.000000e+00
1.000000e+00
1.000000e+00
9.999989e-01
9.999991e-01
9.999881e-01
9.999964e-01
9.996267e-01
9.969543e-01
9.879691e-01
9.629805e-01
9.062241e-01
8.112428e-01
7.119617e-01
5.210643e-01
4.143706e-01
2.385711e-01
1.469262e-01
7.673364e-02
3.694692e-02
1.603928e-02
5.941137e-03
1.818274e-03
4.425633e-04
9.455468e-05
6.292920e-05
4.786070e-05
3.140564e-05
1.510799e-05
5.743875e-06
2.602318e-06
7.946921e-07
1.227147e-07
6.947045e-08
3.505808e-08
1.734678e-08
1.414024e-08
8.723313e-09
4.215478e-09
1.412105e-09
1.439456e-10
3.983402e-11
3.213405e-11
2.580619e-11
1.638204e-11
7.951040e-12
3.502182e-12
1.563381e-12
7.159003e-13
3.263289e-13
1.461975e-13
6.632472e-14
2.237598e-14
2.215726e-15
3.380880e-16
2.099727e-16
1.127379e-16
2.263919e-17
2.514975e-17
1.942466e-17
1.212606e-17
5.709083e-18
1.470682e-18
-4.611038e-20
-4.693555e-20
-1.478467e-20
1.944412e-21
2.659504e-21
1.810703e-21
7.561469e-22
1.950510e-22
-1.999406e-23
-2.708168e-23
-1.100767e-23
1.000000e+00
1.000000e+00
1.000000e+00
1.000000e+00
1.000000e+00
1.000000e+00
1.000000e+00
1.000000e+00
1.000000e+00
9.999996e-01
9.999996e-01
9.999946e-01
9.999949e-01
9.999959e-01
9.993631e-01
9.962155e-01
9.859949e-01
9.586133e-01
8.993073e-01
8.088227e-01
7.067160e-01
5.196770e-01
4.154652e-01
2.429566e-01
1.591162e-01
8.338831e-02
4.027988e-02
1.766918e-02
6.904353e-03
2.337588e-03
6.624727e-04
1.614757e-04
5.912445e-05
3.726134e-05
2.351455e-05
1.089980e-05
4.211696e-06
2.537081e-06
1.442733e-06
7.177294e-07
2.914863e-07
6.702048e-08
1.429886e-08
7.605584e-09
4.417673e-09
3.518016e-09
2.162177e-09
8.422643e-10
1.504594e-10
1.924598e-11
1.543655e-11
6.410704e-12
3.241167e-12
1.170210e-12
5.606797e-13
2.989180e-13
1.220686e-13
6.648076e-14
5.329635e-14
3.214234e-14
1.473567e-14
6.681430e-15
3.133504e-15
1.209784e-15
1.963321e-16
2.150225e-17
1.206606e-17
8.969152e-18
5.662800e-18
3.043953e-18
1.266134e-18
6.015943e-19
1.978591e-19
5.716930e-21
9.477038e-22
-6.552026e-22
-7.346465e-22
-4.884031e-22
-2.972825e-22
-1.371501e-22
1.000000e+00
1.000000e+00
1.000000e+00
1.000000e+00
1.000000e+00
1.000000e+00
1.000000e+00
1.000000e+00
1.000000e+00
9.999998e-01
9.999998e-01
9.999984e-01
9.999949e-01
9.999954e-01
9.999360e-01
9.991155e-01
9.953290e-01
9.837879e-01
9.547055e-01
8.885199e-01
8.115470e-01
7.049462e-01
5.184983e-01
4.165260e-01
2.444700e-01
1.648956e-01
8.850165e-02
4.342346e-02
1.933718e-02
7.748150e-03
2.736697e-03
8.254980e-04
2.244057e-04
7.591362e-05
4.286269e-05
2.844460e-05
1.346445e-05
3.543405e-06
1.336027e-06
7.316891e-07
5.633670e-07
3.610998e-07
1.929119e-07
6.874652e-08
1.055332e-08
2.709775e-09
2.044192e-09
1.683292e-09
1.072273e-09
5.177942e-10
2.390755e-10
1.095582e-10
5.000671e-11
2.298350e-11
1.055674e-11
5.017426e-12
1.703391e-12
2.039703e-13
2.622060e-14
3.010026e-14
1.151533e-14
6.136775e-15
3.092588e-15
2.386875e-15
1.578343e-15
6.782915e-16
1.451765e-16
1.179819e-18
4.342915e-18
2.600171e-18
3.757861e-19
5.741816e-19
5.189698e-19
3.410281e-19
1.750358e-19
8.204567e-20
3.482047e-20
1.353777e-20
4.873390e-21
1.602921e-21
1.000000e+00
1.000000e+00
1.000000e+00
1.000000e+00
1.000000e+00
1.000000e+00
1.000000e+00
1.000000e+00
1.000000e+00
9.999999e-01
9.999999e-01
9.999999e-01
9.999969e-01
9.999960e-01
9.999972e-01
9.998363e-01
9.989872e-01
9.937582e-01
9.846017e-01
9.403040e-01
8.937770e-01
7.990007e-01
7.032809e-01
5.214523e-01
4.170869e-01
2.477931e-01
1.704626e-01
9.365831e-02
4.707392e-02
2.144280e-02
8.829608e-03
3.229279e-03
1.018757e-03
2.745108e-04
7.588028e-05
4.005922e-05
3.082846e-05
2.048281e-05
9.597887e-06
3.112341e-06
6.099519e-07
3.418520e-07
1.938745e-07
1.572197e-07
9.970847e-08
4.085955e-08
8.661618e-09
1.470113e-09
6.756344e-10
5.130226e-10
2.182625e-10
8.394604e-11
3.102604e-11
1.835679e-11
7.937886e-12
5.023044e-12
4.097493e-12
2.506354e-12
1.156943e-12
5.184295e-13
2.441349e-13
9.306930e-14
1.522440e-14
1.390404e-15
1.549995e-15
1.204471e-15
7.871245e-16
4.058156e-16
1.804824e-16
8.174494e-17
2.736667e-17
2.571476e-18
3.786722e-20
1.903730e-19
1.367285e-19
7.511859e-20
3.196125e-20
1.098185e-20
4.600100e-21
1.349000e-21
1.000000e+00
1.000000e+00
1.000000e+00
1.000000e+00
1.000000e+00
1.000000e+00
1.000000e+00
1.000000e+00
1.000000e+00
1.000000e+00
9.999999e-01
9.999999e-01
9.999992e-01
9.999970e-01
9.999974e-01
9.999265e-01
9.999543e-01
9.969373e-01
9.968176e-01
9.755301e-01
9.436298e-01
8.871819e-01
7.906990e-01
7.010400e-01
5.218963e-01
4.173595e-01
2.502740e-01
1.743627e-01
9.762629e-02
5.031908e-02
2.348883e-02
9.962976e-03
3.817595e-03
1.293792e-03
3.731774e-04
8.616473e-05
3.230836e-05
2.086352e-05
1.507319e-05
9.989495e-06
5.111875e-06
1.870686e-06
5.351834e-07
1.425883e-07
9.493805e-08
7.700151e-08
4.975076e-08
2.500039e-08
1.186548e-08
5.525829e-09
2.630604e-09
1.247564e-09
5.920734e-10
2.775196e-10
9.871820e-11
1.529868e-11
2.856441e-12
1.757438e-12
8.554441e-13
5.256384e-13
2.350938e-13
1.866184e-13
1.214870e-13
5.082032e-14
1.028602e-14
7.552781e-16
6.614531e-16
1.446155e-16
1.381258e-16
8.313422e-17
6.357382e-17
3.743081e-17
1.720078e-17
7.781506e-18
3.576095e-18
1.651804e-18
7.398943e-19
3.259557e-19
1.401828e-19
5.831427e-20
1.000000e+00
1.000000e+00
1.000000e+00
1.000000e+00
1.000000e+00
1.000000e+00
1.000000e+00
1.000000e+00
1.000000e+00
1.000000e+00
1.000000e+00
9.999999e-01
9.999999e-01
9.999984e-01
9.999990e-01
9.999656e-01
9.999898e-01
9.986513e-01
9.985940e-01
9.924215e-01
9.749551e-01
9.412511e-01
8.823426e-01
7.836614e-01
6.994269e-01
5.244115e-01
4.205757e-01
2.545717e-01
1.790103e-01
1.014409e-01
5.355787e-02
2.549490e-02
1.100950e-02
4.340082e-03
1.567953e-03
5.149781e-04
1.503291e-04
4.666560e-05
1.994108e-05
1.224170e-05
8.025665e-06
4.316798e-06
2.365873e-06
1.170891e-06
4.238133e-07
7.890924e-08
4.573751e-08
2.214316e-08
9.978231e-09
4.958889e-09
2.240258e-09
1.199124e-09
5.349604e-10
2.697645e-10
2.232666e-10
1.369085e-10
6.596548e-11
3.042373e-11
1.460607e-11
6.051354e-12
1.114468e-12
1.341837e-13
1.072982e-13
9.165897e-14
6.112510e-14
3.059654e-14
1.435517e-14
6.946358e-15
2.561094e-15
4.091801e-16
4.983107e-17
3.619351e-17
1.250017e-17
5.786147e-18
3.152963e-18
8.014146e-19
4.600506e-19
2.436255e-19
1.380793e-19
5.726741e-20
1.000000e+00
1.000000e+00
1.000000e+00
1.000000e+00
1.000000e+00
1.000000e+00
1.000000e+00
1.000000e+00
1.000000e+00
1.000000e+00
1.000000e+00
1.000000e+00
1.000000e+00
9.999993e-01
9.999993e-01
9.999842e-01
9.999940e-01
9.993822e-01
9.993641e-01
9.979634e-01
9.905439e-01
9.730916e-01
9.372991e-01
8.797207e-01
7.715147e-01
6.917991e-01
5.232490e-01
4.221662e-01
2.585582e-01
1.840070e-01
1.048524e-01
5.702643e-02
2.784553e-02
1.221010e-02
4.831969e-03
1.742478e-03
5.769663e-04
1.834139e-04
6.135792e-05
2.423437e-05
1.280092e-05
7.885571e-06
3.698260e-06
1.719347e-06
1.111266e-06
6.755909e-07
3.343924e-07
1.695618e-07
8.554414e-08
4.242487e-08
2.163454e-08
1.080555e-08
4.252359e-09
9.260041e-10
2.393929e-10
1.311873e-10
6.517512e-11
2.622397e-11
1.483967e-11
1.092752e-11
7.320667e-12
3.091945e-12
6.078223e-13
5.869353e-14
5.976266e-14
2.640601e-14
9.322385e-15
6.769484e-15
5.369699e-15
3.296067e-15
1.530879e-15
6.765482e-16
3.054417e-16
1.394053e-16
6.361985e-17
2.934704e-17
1.312969e-17
6.145458e-18
1.949037e-18
2.647913e-19
1.000000e+00
1.000000e+00
1.000000e+00
1.000000e+00
1.000000e+00
1.000000e+00
1.000000e+00
1.000000e+00
1.000000e+00
1.000000e+00
1.000000e+00
1.000000e+00
1.000000e+00
9.999997e-01
9.999997e-01
9.999930e-01
9.999939e-01
9.997674e-01
9.995438e-01
9.994479e-01
9.969827e-01
9.892787e-01
9.704845e-01
9.338242e-01
8.783009e-01
7.661956e-01
6.869120e-01
5.219622e-01
4.232715e-01
2.619525e-01
1.899463e-01
1.067851e-01
5.993088e-02
3.036383e-02
1.379534e-02
5.612260e-03
2.047080e-03
6.782893e-04
2.140436e-04
7.155179e-05
2.716375e-05
1.359508e-05
9.787110e-06
4.438327e-06
1.427480e-06
6.494843e-07
3.259268e-07
1.560439e-07
7.590107e-08
4.307646e-08
2.216082e-08
1.092078e-08
8.727159e-09
5.479062e-09
2.782058e-09
1.295887e-09
6.247338e-10
2.870629e-10
8.790101e-11
1.207719e-11
6.965618e-12
5.753083e-12
3.773596e-12
1.879885e-12
8.790511e-13
4.221410e-13
1.644143e-13
2.891009e-14
4.110485e-15
3.082842e-15
1.188693e-15
6.251802e-16
1.782098e-16
1.147366e-16
6.043551e-17
2.605104e-17
1.070893e-17
6.087893e-18
5.043297e-18
2.558608e-18
1.000000e+00
1.000000e+00
1.000000e+00
1.000000e+00
1.000000e+00
1.000000e+00