# vtk DataFile Version 3.0
MUSCL
ASCII
DATASET STRUCTURED_POINTS
DIMENSIONS 80 80 1
ORIGIN 0 0 0
SPACING 0.0125 0.0125 1
POINT_DATA 6400
SCALARS Temperature double 1
LOOKUP_TABLE default
0.000000e+00
-6.739989e-01
-1.939399e-01
-2.456655e-02
-3.506746e-04
3.243306e-05
3.734356e-06
-2.551529e-07
-2.722497e-07
-1.010761e-07
-3.976678e-08
-1.899644e-08
-9.426971e-09
-4.461777e-09
-2.027479e-09
-3.595341e-10
-1.781061e-12
1.874239e-12
1.350187e-12
3.995987e-13
9.733073e-14
1.657222e-14
2.286531e-15
2.794447e-16
4.378791e-16
8.928948e-16
8.765656e-16
5.097154e-16
2.463774e-16
8.275887e-17
8.193458e-18
-1.078508e-18
-3.046573e-19
-1.402302e-19
-9.162010e-20
1.624592e-19
1.967130e-19
1.127608e-19
5.023777e-20
1.645627e-20
1.283981e-21
-1.344711e-22
-3.310414e-23
-1.176341e-23
-3.601330e-24
-1.116335e-24
-3.508413e-25
-1.096138e-25
-3.356669e-26
-9.988498e-27
-2.871564e-27
-7.972175e-28
-2.191314e-28
-6.395129e-29
-2.084721e-29
-2.800418e-30
1.919607e-31
1.402302e-31
1.248087e-31
7.762138e-32
4.865254e-32
2.948759e-32
1.759556e-32
9.863409e-33
4.990860e-33
2.365808e-33
1.094394e-33
4.914293e-34
2.079601e-34
8.127509e-35
2.931135e-35
9.068320e-36
2.043230e-36
1.733942e-37
-1.266316e-37
-6.556288e-38
5.058199e-40
3.511438e-41
1.257538e-40
1.141512e-40
1.326001e+00
6.739989e-01
1.939399e-01
2.456655e-02
3.506746e-04
-3.243306e-05
-3.734356e-06
2.551529e-07
2.722497e-07
1.010761e-07
3.976678e-08
1.899644e-08
9.426971e-09
4.461777e-09
2.027479e-09
3.595341e-10
1.781061e-12
-1.874239e-12
-1.350187e-12
-3.995987e-13
-9.733073e-14
-1.657222e-14
-2.286531e-15
-2.794447e-16
-4.378791e-16
-8.928948e-16
-8.765656e-16
-5.097154e-16
-2.463774e-16
-8.275887e-17
-8.193458e-18
1.078508e-18
3.046573e-19
1.402302e-19
9.162010e-20
-1.624592e-19
-1.967130e-19
-1.127608e-19
-5.023777e-20
-1.645627e-20
-1.283981e-21
1.344711e-22
3.310414e-23
1.176341e-23
3.601330e-24
1.116335e-24
3.508413e-25
1.096138e-25
3.356669e-26
9.988498e-27
2.871564e-27
7.972175e-28
2.191314e-28
6.395129e-29
2.084721e-29
2.800418e-30
-1.919607e-31
-1.402302e-31
-1.248087e-31
-7.762138e-32
-4.865254e-32
-2.948759e-32
-1.759556e-32
-9.863409e-33
-4.990860e-33
-2.365808e-33
-1.094394e-33
-4.914293e-34
-2.079601e-34
-8.127509e-35
-2.931135e-35
-9.068320e-36
-2.043230e-36
-1.733942e-37
1.266316e-37
6.556288e-38
-5.058199e-40
-3.511438e-41
-1.257538e-40
-1.141512e-40
1.041958e+00
9.580424e-01
5.985533e-01
2.398124e-01
5.879144e-02
3.853036e-03
1.389211e-04
-5.223460e-05
-2.585501e-05
-9.488229e-06
-4.081398e-06
-1.904078e-06
-8.666627e-07
-2.408403e-07
-6.681255e-09
3.041097e-09
1.495258e-09
4.043066e-10
1.085273e-11
-2.408042e-12
-1.825373e-13
-1.087751e-14
6.357243e-15
3.217837e-15
1.537212e-15
3.737172e-15
4.651577e-15
1.131185e-15
-3.149281e-16
-2.455893e-16
-1.514815e-16
-7.225382e-17
-2.774979e-17
-9.696078e-18
-1.986036e-18
-9.504809e-20
-1.698894e-19
-1.103758e-19
-5.718628e-20
-3.708206e-20
-2.068766e-20
-8.408228e-21
-3.185693e-21
-1.207920e-21
-4.411621e-22
-1.556628e-22
-5.290561e-23
-1.743995e-23
-5.400696e-24
-1.563931e-24
-4.362255e-25
-1.290950e-25
-3.494842e-26
-6.991565e-27
-6.125597e-28
-1.307382e-29
1.267441e-29
1.423398e-29
1.103307e-29
6.236155e-30
3.639217e-30
2.120520e-30
1.141100e-30
5.152889e-31
1.813609e-31
5.218697e-32
1.669987e-32
7.973885e-33
4.279969e-33
2.084765e-33
8.548410e-34
2.612939e-34
5.261331e-35
4.061910e-36
2.997232e-37
1.527608e-37
1.342332e-37
6.834501e-38
3.264482e-38
1.661085e-38
1.000268e+00
9.997317e-01
8.846223e-01
5.931905e-01
2.705826e-01
8.405387e-02
1.627327e-02
1.181460e-03
4.687484e-04
2.091810e-04
7.716058e-05
1.097572e-05
-1.209891e-06
-7.901226e-07
-4.752255e-07
-1.759644e-07
-1.283722e-08
1.514173e-09
5.187555e-10
1.586353e-10
-2.175493e-12
-1.233907e-12
-6.832632e-13
-3.649556e-13
-1.625891e-13
-5.306983e-14
2.828806e-15
7.300018e-15
6.938909e-15
3.787745e-15
1.020175e-15
-6.637079e-17
-4.711578e-17
-2.865283e-17
-1.577196e-17
-8.319481e-18
-4.865449e-18
-1.886009e-18
-1.068760e-19
-1.328330e-20
-1.663824e-20
-6.563576e-21
-3.251200e-21
-1.264472e-21
-4.142708e-22
-1.365688e-22
5.461675e-23
2.406760e-23
1.328946e-23
1.618490e-24
1.214928e-25
-1.081696e-25
-6.570882e-26
-2.908214e-26
-1.102535e-26
-3.569382e-27
-1.609821e-27
-9.503960e-28
-5.751318e-28
-3.479420e-28
-2.018834e-28
-1.027387e-28
-4.417417e-29
-1.576276e-29
-4.703369e-30
-1.159905e-30
-2.534907e-31
-7.931250e-32
-4.388015e-32
-2.148230e-32
-7.790158e-33
-2.134123e-33
-3.298010e-34
-5.306244e-35
-1.991957e-35
-1.268175e-35
-7.624686e-36
-4.146882e-36
-2.014175e-36
-1.080076e-36
9.999009e-01
1.000099e+00
9.863035e-01
8.523426e-01
5.807889e-01
2.962549e-01
9.860310e-02
2.172481e-02
5.981843e-04
2.147888e-04
1.412036e-04
8.958575e-05
4.133769e-05
8.318852e-06
-3.023295e-07
-3.484417e-07
-2.408180e-07
-7.073990e-08
-9.218886e-10
2.058523e-10
3.556370e-10
2.164969e-10
9.300598e-11
4.116628e-11
1.670742e-11
1.162534e-12
-2.363717e-14
-4.452128e-14
-1.126154e-14
3.651192e-15
3.430140e-15
2.142539e-15
1.012421e-15
4.209766e-16
1.378191e-16
3.378784e-17
2.767956e-18
-3.132430e-18
-2.963668e-18
-1.332249e-18
-5.705920e-19
-2.437418e-19
-1.037263e-19
-4.365213e-20
-1.704388e-20
-6.795223e-21
-2.733675e-21
-1.128689e-21
-4.487445e-22
-1.242929e-22
-9.255406e-24
9.462723e-25
4.660614e-25
2.619882e-25
1.038952e-25
3.709096e-26
1.126557e-26
2.119417e-27
2.096337e-28
7.102697e-29
-3.610891e-29
-8.395375e-29
-4.188554e-29
-1.364002e-29
-3.890240e-30
-6.379779e-31
8.133835e-32
4.212822e-33
-8.408373e-33
2.635645e-33
-5.176962e-34
-5.734354e-34
1.344893e-34
6.639966e-34
1.093417e-33
9.993053e-34
5.717809e-34
2.781535e-34
7.910697e-35
1.487055e-35
9.999715e-01
1.000029e+00
1.000272e+00
9.654212e-01
8.295471e-01
5.646795e-01
3.364968e-01
1.266587e-01
3.480068e-02
2.685774e-03
-2.341022e-05
6.998840e-05
6.096355e-05
4.230680e-05
1.965662e-05
3.703046e-06
-1.862147e-07
-2.004036e-07
-1.260174e-07
-5.510794e-08
-2.422735e-08
-1.097325e-08
-3.548025e-09
2.608979e-11
1.998640e-11
1.761611e-11
9.313940e-12
1.847261e-12
-4.600774e-14
-1.699573e-14
-7.771365e-15
-1.855029e-15
-2.219709e-16
-6.078706e-17
9.396594e-17
4.193778e-17
9.464788e-18
-2.698780e-18
-2.698685e-18
-4.623625e-19
-2.684970e-19
-1.700313e-19
-8.096994e-20
-4.076831e-20
-2.956601e-23
-1.234567e-21
-9.891050e-22
-8.103303e-22
-4.198754e-22
-1.190911e-22
-9.455383e-23
-6.984519e-23
-3.073612e-23
-1.268916e-23
-5.152326e-24
-2.145511e-24
-9.324129e-25
-4.217295e-25
-1.856024e-25
-7.365043e-26
-3.279428e-26
-1.442561e-26
-5.615147e-27
-2.021225e-27
-6.562587e-28
-1.877535e-28
-4.334119e-29
-4.859203e-30
3.682984e-31
-5.599545e-31
-4.859848e-31
-1.690028e-31
-5.014179e-32
-2.857985e-32
-2.850023e-32
-2.113416e-32
-4.585966e-33
9.760323e-35
2.975396e-34
1.786918e-34
9.999948e-01
1.000005e+00
1.000042e+00
9.983811e-01
9.484969e-01
8.111634e-01
5.426559e-01
3.576533e-01
1.479687e-01
5.012232e-02
9.745866e-03
3.929666e-04
4.838218e-05
3.412786e-05
3.033429e-05
2.033400e-05
1.050572e-05
4.498843e-06
1.926888e-06
7.701587e-07
1.450766e-07
-1.077098e-08
-8.579190e-09
-5.790296e-09
-1.475078e-09
2.200510e-11
1.070683e-11
8.801220e-12
4.854456e-12
2.197145e-12
9.567095e-13
4.195030e-13
1.521225e-13
1.268133e-14
-1.145676e-15
-5.115632e-16
-2.861123e-16
-1.353564e-16
-6.096424e-17
-2.734435e-17
-1.212647e-17
-5.375497e-18
-2.367041e-18
-1.036417e-18
-4.664971e-19
-1.993403e-19
-8.356884e-20
-3.340469e-20
-1.169065e-20
-3.484953e-21
-3.074625e-22
1.977101e-23
-1.361326e-23
-3.192340e-24
-2.878552e-24
-2.174568e-24
-7.203161e-25
-4.011843e-25
-2.244499e-25
-1.257349e-25
-4.682884e-26
-1.483601e-26
-4.333250e-27
-1.703071e-27
-1.163399e-27
-5.397208e-28
-2.242349e-28
-9.002683e-29
-3.327933e-29
-7.887553e-30
-2.404176e-31
8.441601e-32
1.093241e-31
1.848960e-32
-1.167073e-32
-1.682089e-32
-2.028043e-32
-1.935177e-32
-1.095745e-32
-4.979505e-33
9.999985e-01
1.000001e+00
1.000005e+00
9.999931e-01
9.918455e-01
9.348563e-01
7.949469e-01
5.168429e-01
3.729935e-01
1.556347e-01
5.842287e-02
1.588421e-02
2.092750e-03
5.713539e-05
1.743717e-05
1.940545e-05
1.039066e-05
4.644388e-06
1.874213e-06
1.103123e-06
7.967047e-07
3.375478e-07
4.777755e-08
-7.490166e-09
-4.910831e-09
-2.920800e-09
-1.278331e-09
-5.469929e-10
-2.318136e-10
-9.796009e-11
-2.555543e-11
2.114371e-13
2.159708e-13
1.889007e-13
9.347010e-14
4.070444e-14
1.674607e-14
6.719506e-15
2.712528e-15
1.121899e-15
4.753761e-16
2.025509e-16
8.725671e-17
2.597630e-17
5.501295e-18
1.636905e-18
2.376327e-19
-1.749001e-20
-1.626978e-20
-4.170303e-21
-4.018378e-21
-2.604879e-21
-1.125959e-21
-4.392585e-22
-1.494082e-22
-4.552864e-23
-1.155354e-23
-2.516093e-24
-3.877943e-25
-1.974510e-25
-1.728612e-25
-9.798945e-26
-5.425725e-26
-1.920594e-26
-1.427126e-27
-3.860712e-28
-1.002488e-28
-4.085712e-29
-1.465917e-29
-2.343297e-29
-2.315372e-29
-1.348373e-29
-6.775678e-30
-3.455228e-30
-1.906310e-30
-5.151314e-31
-5.754689e-33
-1.493559e-32
1.147688e-33
-5.174825e-34
9.999990e-01
1.000001e+00
1.000000e+00
1.000026e+00
9.998406e-01
9.849639e-01
9.217554e-01
7.794882e-01
5.212752e-01
3.784968e-01
1.649379e-01
6.658167e-02
2.050229e-02
4.282714e-03
3.872405e-04
7.829858e-05
4.260369e-05
2.427475e-05
8.889041e-06
1.948642e-06
7.721357e-07
6.521456e-07
4.106469e-07
2.000061e-07
8.094022e-08
3.219104e-08
1.325986e-08
4.707832e-09
3.815620e-10
-1.127967e-10
-8.974025e-11
-4.948123e-11
-2.148690e-11
-9.318425e-12
-3.980238e-12
-1.671431e-12
-6.940972e-13
-2.875828e-13
-1.193525e-13
-5.143645e-14
-1.337438e-14
1.740639e-16
1.022074e-16
6.696521e-17
2.365312e-17
3.225106e-18
2.201190e-18
1.205399e-18
3.656054e-19
7.879776e-20
2.363950e-20
5.996839e-21
-9.338853e-22
-5.978961e-22
-3.089926e-22
-1.367876e-22
-5.181451e-23
-1.707558e-23
-5.332849e-24
-1.616513e-24
3.384642e-25
1.980954e-25
-5.210657e-26
-4.793618e-26
-3.121358e-26
-1.399798e-26
-5.931410e-27
-2.357204e-27
-3.884632e-28
-9.120101e-30
-1.805852e-29
-5.205261e-30
-3.569709e-30
2.257430e-31
-1.692485e-30
-1.538658e-30
-1.124181e-30
-6.450325e-31
-3.537510e-31
-1.734217e-31
9.999996e-01
1.000000e+00
1.000000e+00
1.000010e+00
1.000015e+00
9.988593e-01
9.785956e-01
9.079269e-01
7.697867e-01
5.221972e-01
3.810100e-01
1.771240e-01
7.570457e-02
2.541960e-02
5.911040e-03
4.426479e-04
2.725832e-05
2.926751e-05
2.423319e-05
1.329679e-05
3.593958e-06
6.846413e-07
3.751165e-07
2.057391e-07
8.189426e-08
3.180070e-08
1.336744e-08
7.273700e-09
5.254439e-09
2.645649e-09
1.183561e-09
5.158245e-10
2.201078e-10
9.187958e-11
3.766253e-11
1.519965e-11
6.368749e-12
1.789133e-12
-3.477669e-14
-5.598872e-14
-4.648096e-14
-2.374960e-14
-4.088963e-15
-8.431823e-19
6.821406e-17
3.498663e-17
4.377164e-18
4.308527e-19
2.570335e-19
4.166510e-20
1.995022e-20
1.569767e-20
1.357846e-20
6.791277e-21
2.910022e-21
1.080700e-21
3.954370e-22
1.143812e-22
1.370900e-23
-1.941020e-24
9.994457e-27
4.569038e-25
3.844614e-25
5.143026e-26
-3.046054e-26
-2.003423e-26
-1.151658e-26
-6.272164e-27
-3.297426e-27
-1.534809e-27
-7.934244e-28
-4.274777e-28
-2.337433e-28
-1.032757e-28
-1.588109e-29
-1.020299e-30
-6.083646e-31
-5.146285e-31
-3.677596e-31
-2.755142e-31
9.999999e-01
1.000000e+00
1.000000e+00
1.000001e+00
1.000013e+00
1.000028e+00
9.971018e-01
9.708955e-01
8.968687e-01
7.615743e-01
5.236561e-01
3.740835e-01
1.875000e-01
8.582957e-02
3.198161e-02
8.889138e-03
1.226257e-03
5.705345e-05
2.394835e-05
2.121314e-05
1.534176e-05
6.648824e-06
1.852760e-06
6.223112e-07
3.915526e-07
2.149004e-07
8.742194e-08
1.621506e-08
5.401997e-09
2.374496e-09
8.468293e-10
5.108686e-10
1.629522e-10
7.717470e-11
1.899098e-11
1.134976e-11
5.974907e-12
4.863725e-12
2.680491e-12
5.961072e-13
-4.863743e-14
-3.722555e-14
-2.644909e-14
-1.088020e-14
-1.029001e-15
6.385355e-17
5.377383e-17
2.803224e-17
1.197509e-17
5.208227e-18
1.152127e-18
4.099163e-20
7.321419e-21
3.178621e-21
9.744067e-22
6.160199e-22
4.222039e-22
2.472927e-22
1.342716e-22
4.768209e-23
1.272683e-23
5.381474e-25
3.740174e-25
3.684297e-25
2.611215e-25
1.115560e-25
4.354040e-26
1.269622e-26
5.535164e-28
-1.021164e-27
-6.796467e-28
-3.532606e-28
-1.134578e-28
-1.719698e-28
-1.270122e-28
-6.362960e-29
-3.399129e-29
-1.268287e-29
-4.303795e-31
-2.501848e-31
1.000000e+00
1.000000e+00
1.000000e+00
9.999998e-01
1.000006e+00
1.000007e+00
1.000034e+00
9.941949e-01
9.637889e-01
8.861029e-01
7.588757e-01
5.119051e-01
3.893469e-01
1.921404e-01
9.239818e-02
3.718360e-02
1.167051e-02
2.310949e-03
5.667869e-05
1.502458e-05
1.615662e-05
1.349309e-05
7.319623e-06
2.129753e-06
4.303754e-07
2.069973e-07
1.765347e-07
1.176337e-07
5.947316e-08
2.910355e-08
1.459211e-08
7.014898e-09
3.362534e-09
1.553244e-09
7.471021e-10
2.433420e-10
2.985588e-11
5.100197e-12
3.542051e-12
2.609108e-12
1.282026e-12
2.688926e-13
-2.661521e-14
-2.133761e-14
-1.399086e-14
-6.715435e-15
-3.002090e-15
-7.819397e-16
3.650469e-18
6.039666e-18
4.837846e-18
2.385089e-18
1.107072e-18
5.170208e-19
9.273843e-20
1.337143e-21
-2.684895e-22
8.681533e-23
1.458704e-22
8.149804e-23
4.286219e-23
2.489632e-23
3.659163e-24
-2.596181e-25
8.423723e-26
8.722536e-27
-6.336337e-26
-7.154120e-26
-4.881207e-26
-2.922055e-26
-1.668785e-26
-9.743453e-27
-3.458432e-27
-1.596587e-28
-9.356308e-29
-5.286876e-29
-3.901317e-29
-3.297428e-29
-2.376893e-29
-1.048349e-29
1.000000e+00
1.000000e+00
1.000000e+00
1.000000e+00
1.000002e+00
1.000006e+00
1.000007e+00
9.997414e-01
9.914187e-01
9.548120e-01
8.817320e-01
7.453972e-01
5.159261e-01
3.938250e-01
1.986577e-01
9.889442e-02
4.197031e-02
1.452132e-02
3.621550e-03
3.410973e-04
1.628655e-05
1.633431e-05
1.280299e-05
9.312133e-06
4.134389e-06
9.227672e-07
1.727637e-07
1.071088e-07
5.065326e-08
2.356998e-08
1.379151e-08
5.484169e-09
3.258629e-09
1.525028e-09
7.618738e-10
6.090626e-10
3.380151e-10
8.969455e-11
4.800749e-12
2.559049e-12
1.853480e-12
1.284680e-12
6.593079e-13
2.894251e-13
9.358596e-14
5.887045e-16
-3.371070e-15
-2.853865e-15
-1.599614e-15
-7.054569e-16
-3.004938e-16
-8.135844e-17
1.519710e-18
6.806885e-19
5.534952e-19
2.206301e-19
5.179524e-21
-2.405470e-21
-1.312864e-21
-5.245813e-22
-1.355354e-22
2.017983e-23
2.133060e-23
2.016861e-23
1.221216e-23
6.422362e-24
3.045639e-24
1.349131e-24
5.665756e-25
2.262952e-25
5.374588e-26
-9.310667e-27
-8.963879e-27
-6.102461e-27
-3.140821e-27
-1.197594e-27
-4.476679e-29
-2.030277e-29
-2.205144e-29
-1.856564e-29
1.000000e+00
1.000000e+00
1.000000e+00
1.000000e+00
1.000000e+00
1.000002e+00
1.000006e+00
9.999078e-01
9.998575e-01
9.863257e-01
9.508052e-01
8.715049e-01
7.384350e-01
5.161706e-01
3.972315e-01
2.052008e-01
1.051917e-01
4.637585e-02
1.744112e-02
5.004772e-03
6.024505e-04
-1.540687e-05
6.313086e-06
8.649326e-06
7.530554e-06
4.870980e-06
2.399077e-06
1.107319e-06
5.298330e-07
2.560583e-07
1.280739e-07
6.427206e-08
3.290912e-08
1.192427e-08
2.331461e-09
5.364828e-10
4.896990e-10
3.616194e-10
1.685510e-10
3.668050e-11
1.571700e-12
1.194871e-12
2.702299e-13
2.503751e-13
2.141793e-13
1.308988e-13
5.880845e-14
2.533531e-14
6.626711e-15
-5.769642e-16
-4.219639e-16
-2.856754e-16
-1.641712e-16
-5.047118e-17
-2.690826e-18
6.997640e-19
3.639852e-19
1.847125e-19
7.740280e-20
1.544857e-20
4.362619e-22
-1.801447e-22
-9.412010e-23
-2.693120e-23
-3.403405e-24
2.388341e-24
2.452217e-24
1.382686e-24
5.363046e-25
3.132438e-25
1.835858e-25
9.551530e-26
3.094370e-26
5.796687e-27
-1.311777e-27
-2.220920e-27
-1.937066e-27
-7.699372e-28
-9.759370e-29
-6.322789e-30
1.000000e+00
1.000000e+00
1.000000e+00
1.000000e+00
1.000000e+00
1.000000e+00
1.000004e+00
9.999621e-01
1.000049e+00
9.976266e-01
9.838339e-01
9.446795e-01
8.634612e-01
7.326356e-01
5.157871e-01
4.002305e-01
2.115879e-01
1.117012e-01
5.054033e-02
2.037873e-02
7.021794e-03
1.669846e-03
2.134828e-04
1.585734e-05
6.729911e-06
3.856626e-06
1.903554e-06
1.057045e-06
1.738430e-07
1.876854e-07
1.089210e-07
5.900724e-08
3.337021e-08
2.718033e-08
1.631357e-08
5.241850e-09
5.037833e-10
3.571023e-10
2.710152e-10
1.795757e-10
8.792056e-11
4.000431e-11
1.456977e-11
1.936489e-12
2.341610e-13
1.158901e-13
3.078454e-14
2.309556e-14
1.934004e-14
1.135528e-14
4.275528e-15
8.830709e-16
-1.689711e-16
-1.307770e-16
-7.408866e-17
-3.410202e-17
-9.548543e-18
4.556277e-20
1.005896e-19
8.575264e-20
4.433562e-20
1.994183e-20
8.953584e-21
3.981048e-21
1.746733e-21
7.302119e-22
2.875852e-22
7.981095e-23
4.287542e-25
-2.470500e-24
-1.435418e-25
4.378371e-26
6.576544e-27
-1.081783e-26
-5.077397e-27
-2.193148e-27
-1.657835e-27
-1.471457e-27
-1.068962e-27
-4.852717e-28
1.000000e+00
1.000000e+00
1.000000e+00
1.000000e+00
1.000000e+00
1.000000e+00
1.000002e+00
9.999843e-01
9.999911e-01
9.999809e-01
9.962389e-01
9.802022e-01
9.386401e-01
8.558764e-01
7.276461e-01
5.150008e-01
4.022814e-01
2.167088e-01
1.189533e-01
5.366303e-02
2.135334e-02
7.306083e-03
2.215459e-03
7.128317e-04
3.114898e-04
1.391150e-04
6.190677e-05
2.756995e-05
1.221071e-05
5.500732e-06
2.583673e-06
8.395316e-07
1.090994e-07
2.503809e-08
2.118908e-08
1.660664e-08
8.771968e-09
2.271031e-09
2.640506e-10
1.295973e-10
6.919812e-11
3.623827e-11
3.059219e-11
1.921247e-11
8.985061e-12
4.122928e-12
1.351733e-12
8.607142e-14
1.618311e-14
9.077909e-15
6.905166e-15
4.338231e-15
2.212867e-15
7.281189e-16
8.047328e-17
-3.203373e-17
-2.724837e-17
-1.543155e-17
-6.543488e-18
-2.781583e-18
-1.183252e-18
-5.040168e-19
-2.064519e-19
-6.709154e-20
-1.104129e-20
9.390958e-22
5.583135e-22
3.199374e-22
1.721191e-22
7.454076e-23
3.033542e-23
1.210342e-23
2.857130e-24
-2.060643e-26
-1.670891e-26
-1.682249e-26
-8.587374e-27
-1.396272e-27
-7.837396e-28
-4.402384e-28
1.000000e+00
1.000000e+00
1.000000e+00
1.000000e+00
1.000000e+00
1.000000e+00
1.000001e+00
9.999935e-01
9.999923e-01
1.000001e+00
9.996742e-01
9.947572e-01
9.763822e-01
9.334434e-01
8.475931e-01
7.249959e-01
5.158317e-01
4.044418e-01
2.191889e-01
1.311073e-01
6.145926e-02
2.458985e-02
8.046370e-03
1.861608e-03
2.982597e-04
1.199513e-04
5.458842e-05
2.676231e-05
9.639473e-06
5.354118e-06
2.642264e-06
2.120829e-06
1.183401e-06
3.003829e-07
1.711622e-08
1.515850e-08
1.265508e-08
9.184321e-09
4.707671e-09
2.285244e-09
9.079056e-10
1.938784e-10
3.398592e-11
1.771773e-11
6.492304e-12
4.141376e-12
3.359854e-12
2.065224e-12
8.264860e-13
1.558376e-13
7.788290e-15
3.891057e-15
1.719500e-15
1.375299e-15
8.211789e-16
3.574941e-16
1.151242e-16
3.248058e-17
7.796479e-18
1.133228e-18
-3.192118e-19
-3.719746e-19
-2.927974e-19
-1.880288e-19
-1.091995e-19
-5.266656e-20
-2.298519e-20
-9.774093e-21
-4.259884e-21
-1.310335e-21
-1.624341e-24
1.912540e-23
1.213981e-23
5.095637e-24
9.115590e-25
-2.791217e-26
-2.333963e-26
-1.633326e-26
-8.815200e-27
-4.930377e-27
1.000000e+00
1.000000e+00
1.000000e+00
1.000000e+00
1.000000e+00
1.000000e+00
1.000000e+00
9.999984e-01
9.999943e-01
9.999962e-01
9.999909e-01
9.992553e-01
9.929677e-01
9.723881e-01
9.301907e-01
8.318906e-01
7.228492e-01
5.194783e-01
4.070812e-01
2.222367e-01
1.367650e-01
6.853326e-02
3.010565e-02
1.132617e-02
3.451882e-03
9.621088e-04
4.597210e-04
2.231446e-04
1.148114e-04
4.017358e-05
7.690784e-06
1.990384e-06
1.782965e-06
1.315377e-06
5.981204e-07
1.329031e-07
1.374570e-08
6.464430e-09
2.709497e-09
2.245687e-09
1.760640e-09
1.113085e-09
5.509719e-10
2.542350e-10
9.001063e-11
1.234759e-11
2.891623e-12
1.923304e-12
1.385665e-12
9.499364e-13
4.847418e-13
1.718146e-13
2.452372e-14
-9.491325e-16
4.793003e-16
3.443837e-16
-1.920403e-16
-3.445041e-17
-1.566316e-17
-6.966607e-18
-2.533605e-18
-1.140840e-18
-3.139981e-19
-1.909283e-19
-1.050929e-19
-5.098019e-20
-2.048928e-20
-8.695976e-21
-4.085813e-21
-3.232299e-21
-1.979015e-21
-6.368237e-22
-2.852036e-23
9.009626e-24
6.318766e-24
3.156156e-24
1.314563e-24
5.461426e-25
2.085102e-25
4.780125e-26
1.000000e+00
1.000000e+00
1.000000e+00
1.000000e+00
1.000000e+00
1.000000e+00
1.000000e+00
1.000000e+00
9.999971e-01
9.999958e-01
9.999960e-01
9.999420e-01
9.989884e-01
9.901909e-01
9.711588e-01
9.209914e-01
8.231503e-01
7.195492e-01
5.218170e-01
4.078095e-01
2.280599e-01
1.365519e-01
6.944024e-02
3.120803e-02
1.171277e-02
3.366280e-03
5.510719e-04
2.171123e-04
1.178430e-04
9.624542e-05
5.552378e-05
1.562006e-05
2.135641e-06
1.121415e-06
9.999201e-07
6.807873e-07
3.468631e-07
1.599519e-07
5.986104e-08
1.097945e-08
1.623333e-09
1.002925e-09
4.836493e-10
2.511666e-10
2.042057e-10
1.269406e-10
6.032216e-11
1.973262e-11
1.546161e-12
7.579736e-13
4.534040e-13
3.596426e-13
2.260789e-13
1.042145e-13
4.464911e-14
1.918246e-14
8.360552e-15
3.559748e-15
1.505294e-15
6.658840e-16
2.053955e-16
8.366342e-18
-1.439024e-18
-1.018179e-18
-5.510795e-19
-2.829530e-19
-1.421304e-19
-6.400254e-20
-1.871452e-20
-3.317092e-21
-1.804688e-21
-1.548856e-21
-9.054498e-22
-3.999461e-22
-1.710843e-22
-7.626748e-23
-2.708835e-23
-2.740598e-24
2.158825e-25
1.810706e-25
1.000000e+00
1.000000e+00
1.000000e+00
1.000000e+00
1.000000e+00
1.000000e+00
1.000000e+00
1.000000e+00
9.999994e-01
9.999970e-01
9.999970e-01
9.999725e-01
1.000008e+00
9.975405e-01
9.896774e-01
9.671689e-01
9.134765e-01
8.160251e-01
7.166187e-01
5.214821e-01
4.107378e-01
2.331531e-01
1.462883e-01
7.657278e-02
3.640207e-02
1.519131e-02
5.228220e-03
1.304854e-03
2.892199e-04
1.001640e-04
8.121819e-05
6.122514e-05
2.896851e-05
7.683400e-06
1.011812e-06
5.534298e-07
3.086983e-07
1.641450e-07
1.234653e-07
7.922932e-08
3.825803e-08
1.793316e-08
6.044082e-09
7.837693e-10
1.364663e-10
1.107657e-10
7.485295e-11
5.395730e-11
3.283673e-11
1.208680e-11
2.091771e-12
2.792680e-13
2.105549e-13
9.115440e-14
4.324681e-14
1.088076e-14
6.860928e-15
9.603959e-16
8.493678e-16
6.719998e-16
5.252517e-16
3.038324e-16
1.350269e-16
5.856275e-17
2.606560e-17
9.377898e-18
5.001704e-19
-8.628501e-20
-7.087471e-20
-3.685762e-20
-8.823915e-21
-1.657648e-21
-8.833052e-22
-2.759342e-22
-1.615772e-22
-7.373206e-23
-5.681981e-23
-3.569162e-23
-1.699642e-23
-6.365876e-24
1.000000e+00
1.000000e+00
1.000000e+00
1.000000e+00
1.000000e+00
1.000000e+00
1.000000e+00
1.000000e+00
1.000000e+00
9.999985e-01
9.999989e-01
9.999869e-01
9.999878e-01
9.996318e-01
9.969540e-01
9.879562e-01
9.629615e-01
9.062057e-01
8.112268e-01
7.119472e-01
5.210379e-01
4.143319e-01
2.385143e-01
1.468640e-01
7.668953e-02
3.692652e-02
1.600754e-02
5.910579e-03
1.804785e-03
4.308997e-04
8.909439e-05
6.182479e-05
4.643220e-05
3.063713e-05
1.491167e-05
5.680471e-06
2.526058e-06
7.866504e-07
1.364223e-07
7.175192e-08
3.924894e-08
1.823811e-08
1.422326e-08
8.689836e-09
4.189213e-09
1.434281e-09
1.348004e-10
3.132765e-11
3.134417e-11
2.562090e-11
1.634840e-11
7.913803e-12
3.641833e-12
1.645707e-12
7.396921e-13
3.362823e-13
1.498628e-13
7.150786e-14
2.404841e-14
2.586772e-15
5.688669e-16
1.746371e-16
6.676537e-17
4.644875e-17
2.336119e-17
1.925422e-17
1.337107e-17
3.920695e-18
-6.236128e-20
-5.119587e-20
-3.713451e-20
-1.881378e-20
-8.820645e-21
-4.321585e-21
-1.928703e-21
-4.543494e-22
-5.053668e-23
-1.836425e-23
-1.588514e-23
-5.661693e-24
1.000000e+00
1.000000e+00
1.000000e+00
1.000000e+00
1.000000e+00
1.000000e+00
1.000000e+00
1.000000e+00
1.000000e+00
9.999994e-01
9.999994e-01
9.999942e-01
9.999909e-01
9.999866e-01
9.993608e-01
9.962138e-01
9.859820e-01
9.585963e-01
8.992898e-01
8.088040e-01
7.066857e-01
5.196362e-01
4.154167e-01
2.428968e-01
1.590712e-01
8.337109e-02
4.025281e-02
1.763451e-02
6.883539e-03
2.326142e-03
6.593706e-04
1.628011e-04
5.891979e-05
3.666633e-05
2.301195e-05
1.075543e-05
4.198670e-06
2.481101e-06
1.449690e-06
7.241823e-07
3.117152e-07
7.449344e-08
1.494257e-08
6.703659e-09
4.539513e-09
3.590025e-09
2.190257e-09
8.409931e-10
1.386850e-10
2.173562e-11
1.480908e-11
8.183051e-12
2.262850e-12
1.305494e-12
7.261193e-13
1.678306e-13
1.475767e-13
7.363584e-14
5.672788e-14
3.373561e-14
1.550430e-14
6.778354e-15
3.087756e-15
1.191296e-15
1.507697e-16
1.083746e-17
1.298592e-17
1.097440e-17
6.497590e-18
2.870155e-18
1.256881e-18
5.699837e-19
1.713533e-19
-3.014956e-21
-2.643483e-21
-2.054456e-21
-1.095237e-21
-5.326820e-22
-2.543341e-22
-1.040872e-22
1.000000e+00
1.000000e+00
1.000000e+00
1.000000e+00
1.000000e+00
1.000000e+00
1.000000e+00
1.000000e+00
1.000000e+00
9.999998e-01
9.999998e-01
9.999983e-01
9.999937e-01
9.999949e-01
9.999369e-01
9.991130e-01
9.953244e-01
9.837814e-01
9.546956e-01
8.884995e-01
8.115116e-01
7.048989e-01
5.184429e-01
4.164613e-01
2.444167e-01
1.648832e-01
8.848395e-02
4.339130e-02
1.930993e-02
7.734050e-03
2.732947e-03
8.260698e-04
2.248792e-04
7.549335e-05
4.232911e-05
2.793778e-05
1.326110e-05
3.644351e-06
1.396462e-06
6.859884e-07
5.826693e-07
3.739483e-07
1.992863e-07
7.163707e-08
1.104533e-08
3.246389e-09
2.166158e-09
1.698964e-09
1.072930e-09
5.148999e-10
2.388715e-10
1.134364e-10
5.237805e-11
2.400436e-11
1.084641e-11
5.197727e-12
1.754798e-12
2.269729e-13
2.235912e-14
2.477857e-14
8.308843e-15
4.454805e-15
2.807095e-15
2.301914e-15
1.629585e-15
5.236751e-16
3.278441e-17
1.149412e-17
6.388061e-18
6.916597e-19
6.482719e-19
5.378861e-19
4.610858e-19
2.745593e-19
1.197198e-19
5.162966e-20
2.211805e-20
9.399436e-21
4.019544e-21
1.494491e-21
1.000000e+00
1.000000e+00
1.000000e+00
1.000000e+00
1.000000e+00
1.000000e+00
1.000000e+00
1.000000e+00
1.000000e+00
9.999999e-01
9.999998e-01
9.999999e-01
9.999968e-01
9.999956e-01
9.999981e-01
9.998400e-01
9.989890e-01
9.937500e-01
9.846017e-01
9.402889e-01
8.937421e-01
7.989473e-01
7.032223e-01
5.213918e-01
4.170369e-01
2.477834e-01
1.704623e-01
9.363995e-02
4.704863e-02
2.142482e-02
8.821111e-03
3.226530e-03
1.017859e-03
2.735753e-04
7.484347e-05
3.920677e-05
2.979387e-05
1.974887e-05
9.256199e-06
3.027718e-06
5.664665e-07
3.255920e-07
2.003206e-07
1.593231e-07
9.925714e-08
4.103163e-08
8.890491e-09
1.581663e-09
1.034018e-09
4.500815e-10
1.869739e-10
1.007980e-10
5.256992e-11
2.465399e-11
1.055325e-11
5.159368e-12
4.038517e-12
2.498214e-12
1.176967e-12
5.293087e-13
2.545819e-13
9.948261e-14
1.415063e-14
1.843595e-15
1.606636e-15
1.310914e-15
7.868909e-16
3.635917e-16
1.614517e-16
7.621923e-17
2.434617e-17
1.374668e-18
1.149654e-19
2.216864e-19
8.127297e-20
4.851840e-20
1.932152e-20
7.715670e-21
3.424299e-21
9.957110e-22
1.000000e+00
1.000000e+00
1.000000e+00
1.000000e+00
1.000000e+00
1.000000e+00
1.000000e+00
1.000000e+00
1.000000e+00
1.000000e+00
9.999999e-01
9.999999e-01
9.999992e-01
9.999968e-01
9.999970e-01
9.999285e-01
9.999783e-01
9.969385e-01
9.968290e-01
9.755356e-01
9.436149e-01
8.871446e-01
7.906489e-01
7.009887e-01
5.218581e-01
4.173509e-01
2.502835e-01
1.743665e-01
9.761456e-02
5.030366e-02
2.347661e-02
9.955391e-03
3.813623e-03
1.291576e-03
3.714536e-04
8.427411e-05
3.020402e-05
2.002953e-05
1.467932e-05
9.864310e-06
5.033986e-06
1.949730e-06
5.734533e-07
1.488685e-07
9.907850e-08
7.298374e-08
4.890890e-08
2.498329e-08
1.175224e-08
5.477887e-09
2.642561e-09
1.268299e-09
6.047130e-10
2.914160e-10
1.094147e-10
1.911516e-11
3.181457e-12
1.706642e-12
1.092103e-12
4.558114e-13
2.593561e-13
1.922228e-13
1.340198e-13
4.389673e-14
4.689157e-15
1.047251e-15
7.971218e-16
3.158051e-16
1.592849e-16
7.831327e-17
6.292192e-17
3.789197e-17
1.723747e-17
7.796762e-18
3.598700e-18
1.617597e-18
7.253812e-19
3.264281e-19
1.469798e-19
6.450364e-20
1.000000e+00
1.000000e+00
1.000000e+00
1.000000e+00
1.000000e+00
1.000000e+00
1.000000e+00
1.000000e+00
1.000000e+00
1.000000e+00
1.000000e+00
9.999999e-01
9.999999e-01
9.999984e-01
9.999991e-01
9.999667e-01
9.999733e-01
9.986413e-01
9.986639e-01
9.925660e-01
9.749410e-01
9.412173e-01
8.822950e-01
7.836061e-01
6.993817e-01
5.243978e-01
4.205825e-01
2.545846e-01
1.790168e-01
1.014370e-01
5.354880e-02
2.548535e-02
1.100274e-02
4.336274e-03
1.565643e-03
5.131495e-04
1.491427e-04
4.545725e-05
1.898668e-05
1.171457e-05
7.774248e-06
4.300494e-06
2.389801e-06
1.174269e-06
4.179561e-07
8.089391e-08
4.511517e-08
2.098181e-08
9.819025e-09
4.822597e-09
2.391041e-09
1.280046e-09
5.649941e-10
2.876542e-10
2.293481e-10
1.453212e-10
6.992693e-11
3.236661e-11
1.526590e-11
5.984171e-12
8.952956e-13
1.989807e-13
1.338154e-13
1.061532e-13
6.375552e-14
2.916744e-14
1.349945e-14
6.416783e-15
2.119947e-15
2.276429e-16
6.437481e-17
2.849476e-17
1.323903e-17
7.552730e-18
2.163515e-18
1.334195e-18
3.130017e-19
2.897518e-19
1.283070e-19
6.208654e-20
1.000000e+00
1.000000e+00
1.000000e+00
1.000000e+00
1.000000e+00
1.000000e+00
1.000000e+00
1.000000e+00
1.000000e+00
1.000000e+00
1.000000e+00
1.000000e+00
1.000000e+00
9.999992e-01
9.999996e-01
9.999852e-01
1.000013e+00
9.993677e-01
9.993498e-01
9.979769e-01
9.905434e-01
9.730735e-01
9.372601e-01
8.796692e-01
7.714684e-01
6.917728e-01
5.232498e-01
4.221801e-01
2.585739e-01
1.840169e-01
1.048524e-01
5.702042e-02
2.783857e-02
1.220522e-02
4.829285e-03
1.740676e-03
5.742746e-04
1.810813e-04
5.947916e-05
2.297900e-05
1.203983e-05
7.545500e-06
3.552915e-06
1.657047e-06
1.119883e-06
6.750703e-07
3.284083e-07
1.699833e-07
8.586284e-08
4.238828e-08
2.092539e-08
1.092761e-08
4.299313e-09
9.221965e-10
2.478670e-10
1.090032e-10
6.177277e-11
2.800969e-11
1.544423e-11
1.171973e-11
8.217373e-12
3.064958e-12
4.928993e-13
1.049228e-13
5.869568e-14
2.524109e-14
1.026631e-14
6.293204e-15
5.104618e-15
3.103991e-15
1.462105e-15
6.607300e-16
3.052938e-16
1.409785e-16
6.501291e-17
2.999517e-17
1.391613e-17
6.572800e-18
2.105257e-18
3.109360e-19
1.000000e+00
1.000000e+00
1.000000e+00
1.000000e+00
1.000000e+00
1.000000e+00
1.000000e+00
1.000000e+00
1.000000e+00
1.000000e+00
1.000000e+00
1.000000e+00
1.000000e+00
9.999996e-01
9.999998e-01
9.999934e-01
1.000002e+00
9.997664e-01
9.995493e-01
9.994631e-01
9.969915e-01
9.892767e-01
9.704691e-01
9.337984e-01
8.782687e-01
7.661765e-01
6.869092e-01
5.219760e-01
4.232933e-01
2.619712e-01
1.899560e-01
1.067842e-01
5.992491e-02
3.035762e-02
1.379139e-02
5.609728e-03
2.044653e-03
6.759721e-04
2.118309e-04
6.974614e-05
2.586793e-05
1.276822e-05
9.223383e-06
4.172753e-06
1.260399e-06
6.352501e-07
3.289351e-07
1.602228e-07
7.570794e-08
4.279280e-08
2.119094e-08
1.093577e-08
8.734929e-09
5.620562e-09
2.840096e-09
1.360636e-09
6.568784e-10
2.765768e-10
5.690342e-11
1.190200e-11
7.750797e-12
6.355701e-12
4.000145e-12
1.904139e-12
8.880972e-13
4.262943e-13
1.480442e-13
1.974089e-14
3.191089e-15
2.442306e-15
9.465638e-16
6.191395e-16
1.799570e-16
9.453685e-17
5.692574e-17
2.670572e-17
1.048556e-17
6.681959e-18
5.453390e-18
2.853037e-18
1.000000e+00
1.000000e+00
1.000000e+00
1.000000e+00
1.000000e+00
1.000000e+00
1.000000e+00