# vtk DataFile Version 3.0
MUSCL
ASCII
DATASET STRUCTURED_POINTS
DIMENSIONS 80 80 1
ORIGIN 0 0 0
SPACING 0.0125 0.0125 1
POINT_DATA 6400
SCALARS Temperature double 1
LOOKUP_TABLE default
0.000000e+00
-6.739987e-01
-1.939398e-01
-2.456712e-02
-3.492568e-04
2.684126e-05
2.564112e-06
-7.723035e-08
-1.111456e-07
-5.659153e-08
-2.856707e-08
-1.421109e-08
-6.780389e-09
-3.088801e-09
-1.448534e-09
-2.523666e-11
1.448344e-11
6.431021e-12
1.996077e-12
5.545762e-13
1.698907e-13
3.936577e-14
5.607711e-15
6.131697e-16
2.082557e-16
3.240479e-16
3.129339e-16
1.829419e-16
9.318367e-17
4.244239e-17
1.593390e-17
5.284423e-18
2.614253e-18
1.492475e-18
7.764668e-19
3.549793e-19
1.444216e-19
5.323870e-20
1.771703e-20
5.295996e-21
1.602860e-21
3.908055e-22
1.685126e-23
6.140084e-26
-1.521669e-24
-1.131790e-24
-6.370998e-25
-3.468400e-25
-1.761348e-25
-8.417663e-26
-3.101165e-26
5.341368e-28
1.990476e-28
1.333788e-28
6.155172e-29
2.427421e-29
8.974032e-30
3.324342e-30
1.275167e-30
5.103329e-31
2.164162e-31
7.352027e-32
2.038942e-32
2.667517e-34
-3.139836e-35
-5.612282e-35
-3.192054e-35
-1.292657e-35
-4.856109e-36
-1.704823e-36
-5.708047e-37
-1.864625e-37
-6.073476e-38
-2.034420e-38
-1.904451e-39
2.324274e-40
9.952867e-41
4.206010e-41
1.373675e-41
1.385544e-41
1.326001e+00
6.739987e-01
1.939398e-01
2.456712e-02
3.492568e-04
-2.684126e-05
-2.564112e-06
7.723035e-08
1.111456e-07
5.659153e-08
2.856707e-08
1.421109e-08
6.780389e-09
3.088801e-09
1.448534e-09
2.523666e-11
-1.448344e-11
-6.431021e-12
-1.996077e-12
-5.545762e-13
-1.698907e-13
-3.936577e-14
-5.607711e-15
-6.131697e-16
-2.082557e-16
-3.240479e-16
-3.129339e-16
-1.829419e-16
-9.318367e-17
-4.244239e-17
-1.593390e-17
-5.284423e-18
-2.614253e-18
-1.492475e-18
-7.764668e-19
-3.549793e-19
-1.444216e-19
-5.323870e-20
-1.771703e-20
-5.295996e-21
-1.602860e-21
-3.908055e-22
-1.685126e-23
-6.140084e-26
1.521669e-24
1.131790e-24
6.370998e-25
3.468400e-25
1.761348e-25
8.417663e-26
3.101165e-26
-5.341368e-28
-1.990476e-28
-1.333788e-28
-6.155172e-29
-2.427421e-29
-8.974032e-30
-3.324342e-30
-1.275167e-30
-5.103329e-31
-2.164162e-31
-7.352027e-32
-2.038942e-32
-2.667517e-34
3.139836e-35
5.612282e-35
3.192054e-35
1.292657e-35
4.856109e-36
1.704823e-36
5.708047e-37
1.864625e-37
6.073476e-38
2.034420e-38
1.904451e-39
-2.324274e-40
-9.952867e-41
-4.206010e-41
-1.373675e-41
-1.385544e-41
1.041958e+00
9.580422e-01
5.985541e-01
2.398120e-01
5.880075e-02
3.863787e-03
-1.046515e-04
-4.360153e-05
-2.573894e-05
-1.109634e-05
-4.798274e-06
-2.129195e-06
-9.326528e-07
-2.637019e-07
-1.828115e-09
1.742796e-09
1.262698e-09
4.222214e-10
4.932528e-11
-7.621322e-13
-2.724407e-13
-4.290739e-14
3.014655e-15
3.787093e-15
8.012206e-16
3.706922e-16
-3.947691e-17
-1.277244e-16
-1.194886e-16
-6.670741e-17
-1.367243e-17
-3.224882e-18
-1.710239e-18
-1.086617e-18
-6.536450e-19
-3.344850e-19
-8.766194e-21
-1.126517e-20
1.289474e-21
-9.594298e-22
-1.312424e-21
-8.381511e-22
-4.370454e-22
-2.410167e-22
-1.496693e-22
-9.307112e-23
-5.478867e-23
-2.987954e-23
-1.095175e-23
-1.595622e-24
-2.890630e-26
6.957150e-26
4.029628e-26
1.562415e-26
5.662794e-27
1.956458e-27
6.722379e-28
2.481547e-28
1.030587e-28
4.919058e-29
1.249656e-29
-1.975337e-31
-4.395093e-32
-2.874204e-32
-1.417943e-32
-7.100098e-33
-3.351212e-33
-1.492014e-33
-6.291544e-34
-2.513576e-34
-9.524815e-35
-3.432735e-35
-1.222185e-35
-2.237489e-36
6.073242e-40
2.733865e-38
1.006931e-38
3.219125e-39
9.670029e-40
5.182265e-40
1.000268e+00
9.997317e-01
8.846259e-01
5.931680e-01
2.705762e-01
8.397647e-02
1.614360e-02
1.210508e-03
4.732640e-04
2.065225e-04
7.541726e-05
9.876253e-06
-1.439978e-06
-8.684384e-07
-5.181887e-07
-1.876125e-07
-2.223808e-08
5.793334e-10
5.529319e-10
1.765918e-10
3.341904e-12
-3.531196e-13
-3.251871e-13
-1.860814e-13
-1.003815e-13
-5.329739e-14
-1.948022e-14
-2.359412e-15
-1.624735e-17
2.838314e-17
-1.584699e-16
-1.220825e-16
-5.779842e-17
-3.010900e-17
-1.616923e-17
-8.198016e-18
-3.923722e-18
-1.744839e-18
-6.116524e-19
-1.001268e-19
-8.828150e-22
2.759404e-22
2.834470e-22
-1.082491e-22
-4.055970e-23
-5.336461e-23
-4.213464e-23
-3.504728e-23
-2.913566e-23
-1.905776e-23
-1.034542e-23
-4.885467e-24
-2.191610e-24
-9.320554e-25
-3.826967e-25
-1.550651e-25
-6.246724e-26
-2.625822e-26
-8.702011e-27
-7.774548e-28
5.455275e-29
2.921671e-29
1.351627e-29
5.618222e-30
2.368824e-30
1.002252e-30
4.143905e-31
1.650647e-31
6.314392e-32
2.324264e-32
8.266789e-33
2.250262e-33
3.172462e-35
-5.548136e-36
-5.978547e-36
-2.254183e-36
-7.353366e-37
-2.418186e-37
-7.794508e-38
-2.786355e-38
9.999010e-01
1.000099e+00
9.862892e-01
8.523652e-01
5.808763e-01
2.962498e-01
9.870574e-02
2.175917e-02
5.876058e-04
1.428086e-04
1.353869e-04
9.060253e-05
4.145953e-05
8.323540e-06
-3.097074e-07
-3.761775e-07
-2.436194e-07
-8.308038e-08
-3.385168e-09
1.245634e-09
3.995029e-10
1.755785e-10
7.065407e-11
2.864754e-11
1.022435e-11
1.386824e-12
-5.900389e-14
-2.866075e-14
-1.487768e-14
-3.728949e-15
-2.105746e-16
-1.107222e-16
-3.503413e-17
-2.714872e-17
-9.245960e-18
-7.946608e-19
-1.968884e-19
-1.592808e-18
-1.324983e-18
-7.407820e-19
-3.105927e-19
-1.147073e-19
-4.636232e-20
-2.065885e-20
-9.804836e-21
-4.901415e-21
-1.535478e-21
-6.862116e-23
-2.912270e-23
5.706133e-24
-1.273159e-24
-2.233268e-24
-1.412938e-24
-7.294901e-25
-3.662371e-25
6.452047e-27
-3.498009e-26
-2.647334e-26
-1.853410e-26
-1.087228e-26
-4.727260e-27
-1.909110e-27
-7.894900e-28
-3.336006e-28
-1.409794e-28
-5.866781e-29
-2.378503e-29
-9.454950e-30
-3.683702e-30
-9.015825e-31
7.835906e-33
4.629191e-33
3.096542e-33
1.231160e-33
4.500627e-34
1.517317e-34
4.821775e-35
1.455525e-35
4.209756e-36
1.224356e-36
9.999700e-01
1.000030e+00
9.997844e-01
9.649558e-01
8.294681e-01
5.646344e-01
3.365249e-01
1.266457e-01
3.473586e-02
2.610988e-03
-7.834253e-05
6.575377e-05
6.041937e-05
4.369676e-05
1.864443e-05
2.732764e-06
-3.165225e-07
-2.129753e-07
-1.280539e-07
-5.389922e-08
-2.165689e-08
-9.064480e-09
-2.630537e-09
8.034306e-12
1.242513e-11
1.073639e-11
5.600648e-12
1.291710e-12
1.209264e-14
-1.140711e-14
-8.760681e-15
-4.354171e-15
-2.020240e-15
-8.082517e-16
-2.984253e-16
-7.173520e-17
-3.345127e-18
-1.307069e-19
6.859884e-19
3.649416e-19
9.807209e-20
1.723042e-20
-1.706818e-20
-2.025988e-20
-9.733031e-21
-3.158826e-21
-1.627514e-21
-2.418565e-21
-1.531288e-21
-7.563835e-22
-3.605822e-22
-1.690380e-22
-7.604318e-23
-3.259629e-23
-1.326786e-23
-5.703979e-24
-1.662709e-24
-1.648680e-25
6.252068e-27
-6.563391e-27
-2.459212e-27
-1.538170e-27
-7.876941e-28
-2.601046e-28
-5.966865e-29
-4.036223e-29
-1.434474e-29
-6.711867e-30
-3.746990e-30
-2.499187e-30
-1.458015e-30
-5.877476e-31
-2.221969e-31
-7.977090e-32
-2.734100e-32
-9.055920e-33
-2.866975e-33
-8.695996e-34
-2.546404e-34
-7.752716e-35
9.999904e-01
1.000010e+00
1.000018e+00
9.983492e-01
9.483669e-01
8.110730e-01
5.426781e-01
3.576678e-01
1.479230e-01
5.009557e-02
9.778247e-03
4.303694e-04
3.098819e-06
3.593168e-05
3.446304e-05
2.187126e-05
1.033945e-05
4.372056e-06
1.850104e-06
7.369342e-07
1.235331e-07
-7.377685e-09
-7.149491e-09
-4.164838e-09
-1.062777e-09
1.897447e-11
7.333619e-12
5.127920e-12
2.687659e-12
1.237808e-12
6.035579e-13
2.962940e-13
1.364245e-13
5.712396e-14
1.011077e-14
-2.643060e-16
-9.299307e-17
-4.058533e-17
-1.861613e-17
-8.638248e-18
-3.908841e-18
-1.796590e-18
-8.960743e-19
-4.312345e-19
-2.147281e-19
-5.575096e-20
-2.112831e-20
-6.603365e-21
-1.279241e-21
-6.838748e-22
-3.455762e-22
-9.945118e-23
-6.447383e-23
-2.497861e-23
-9.080027e-24
-6.383497e-24
-4.332113e-24
-2.366290e-24
-9.261362e-25
-3.482711e-25
-1.278499e-25
-4.739373e-26
-1.733539e-26
-6.495846e-27
-2.573608e-27
-1.021495e-27
-4.200292e-28
-1.709655e-28
-4.355131e-29
-3.208360e-30
-9.385047e-31
-4.670386e-31
-1.528378e-31
-4.419665e-32
-2.171907e-32
-6.032557e-33
-1.980833e-33
-6.572440e-34
-1.248955e-34
-3.213917e-35
9.999964e-01
1.000004e+00
1.000005e+00
9.999574e-01
9.918846e-01
9.348657e-01
7.949240e-01
5.168100e-01
3.729553e-01
1.556063e-01
5.837911e-02
1.577253e-02
2.066339e-03
3.265691e-05
3.348544e-05
2.137676e-05
1.000255e-05
4.407985e-06
1.751760e-06
1.045183e-06
7.528966e-07
3.164930e-07
3.648154e-08
-4.757239e-09
-4.175697e-09
-2.329076e-09
-1.022482e-09
-4.509786e-10
-1.992897e-10
-8.887489e-11
-3.421227e-11
-7.062592e-12
1.810080e-13
8.812444e-14
6.600727e-14
3.185905e-14
1.384382e-14
5.948379e-15
2.607033e-15
1.164823e-15
5.296388e-16
2.203832e-16
5.540522e-17
-9.318432e-19
-3.178872e-19
-1.855061e-19
-2.788642e-20
-6.100845e-21
-1.541763e-20
-1.574221e-20
-8.011083e-21
-3.367192e-21
-1.248155e-21
-4.083905e-22
-8.954066e-23
-3.602721e-24
1.260070e-23
8.117968e-24
1.021672e-24
2.658369e-25
8.822728e-25
6.281043e-25
2.884871e-25
1.187876e-25
4.141701e-26
1.079347e-26
1.087733e-27
-2.163566e-28
-1.335354e-28
-7.212978e-29
-3.427500e-29
-1.588657e-29
-7.147801e-30
-3.134406e-30
-1.321496e-30
-5.518722e-31
-2.301258e-31
-9.235152e-32
-3.040172e-32
-5.521886e-33
9.999985e-01
1.000001e+00
1.000001e+00
1.000027e+00
1.000019e+00
9.847905e-01
9.217591e-01
7.794693e-01
5.212539e-01
3.784658e-01
1.649607e-01
6.666805e-02
2.051704e-02
4.093002e-03
3.499015e-04
7.626462e-05
4.537496e-05
2.502837e-05
9.069919e-06
1.916348e-06
7.570007e-07
6.146210e-07
4.047366e-07
2.015959e-07
8.165476e-08
3.071079e-08
1.217136e-08
5.424988e-09
1.606053e-09
-8.012676e-11
-6.276561e-11
-3.834141e-11
-1.944192e-11
-8.423709e-12
-3.623584e-12
-1.554511e-12
-6.659501e-13
-2.843437e-13
-1.224542e-13
-5.070528e-14
-9.303961e-15
9.875407e-17
2.102206e-16
1.253724e-16
2.635440e-17
-2.941821e-19
-2.249075e-19
-1.497930e-19
-9.305117e-20
9.388401e-21
3.750663e-20
2.545343e-20
1.692878e-21
-4.685836e-22
-2.633198e-22
-4.670216e-23
6.534561e-24
1.164413e-23
1.085807e-23
6.949421e-24
8.007964e-25
4.298801e-25
2.676106e-25
1.007361e-25
7.410646e-26
3.885449e-26
1.652406e-26
5.618330e-27
1.905882e-27
8.369995e-28
4.178646e-28
2.049885e-28
9.435299e-29
3.617260e-29
1.020891e-29
2.576880e-30
7.776787e-31
2.574023e-31
5.794750e-32
2.985518e-33
9.999994e-01
1.000001e+00
1.000000e+00
1.000012e+00
1.000018e+00
9.988990e-01
9.786520e-01
9.079500e-01
7.697995e-01
5.221430e-01
3.810342e-01
1.772153e-01
7.572900e-02
2.531472e-02
5.859018e-03
4.331023e-04
5.263031e-05
3.034748e-05
2.428407e-05
1.330198e-05
3.766478e-06
6.312675e-07
4.078607e-07
2.026012e-07
7.933818e-08
2.652688e-08
1.206012e-08
5.555808e-09
4.341860e-09
2.627276e-09
1.161254e-09
4.942785e-10
2.056197e-10
8.494547e-11
3.497855e-11
1.424910e-11
5.999601e-12
1.659514e-12
-6.637312e-14
-6.454058e-14
-5.034165e-14
-2.330966e-14
-2.712299e-15
1.551062e-16
1.156822e-16
5.344513e-17
7.892831e-18
-1.233426e-20
-1.232638e-19
-1.396322e-20
1.120028e-20
3.205398e-20
3.010076e-20
1.601762e-20
9.071443e-21
3.852865e-21
5.407438e-22
8.220271e-24
1.483560e-24
4.778112e-24
1.244328e-23
1.236179e-23
5.535681e-24
9.582660e-25
1.787433e-26
2.040905e-26
1.485732e-26
-1.051483e-27
-2.114348e-28
4.327002e-28
5.906489e-29
-4.973240e-29
5.882307e-29
5.620172e-29
3.602424e-29
1.697329e-29
5.954769e-30
1.733035e-30
4.811082e-31
9.841207e-32
9.999997e-01
1.000000e+00
1.000000e+00
1.000002e+00
1.000017e+00
1.000028e+00
9.972297e-01
9.709863e-01
8.969317e-01
7.615370e-01
5.236248e-01
3.740785e-01
1.874879e-01
8.575807e-02
3.193303e-02
8.882439e-03
1.245945e-03
4.398942e-05
2.473723e-05
2.110340e-05
1.537401e-05
6.627819e-06
1.956977e-06
9.856739e-07
4.912415e-07
2.404268e-07
9.526783e-08
2.242631e-08
3.912732e-09
2.151802e-09
1.173150e-09
4.064178e-10
1.622602e-10
5.726217e-11
2.141691e-11
1.231120e-11
6.127337e-12
4.641669e-12
2.548825e-12
5.707311e-13
-4.411619e-14
-4.107834e-14
-2.893614e-14
-9.438276e-15
-9.221826e-17
1.083475e-16
7.956807e-17
3.579992e-17
1.500353e-17
6.252938e-18
1.703532e-18
2.088134e-20
-1.484543e-20
1.234888e-20
7.300989e-21
6.464247e-21
5.397644e-21
2.153856e-21
3.694138e-22
1.366101e-23
6.458337e-24
1.006318e-23
1.134832e-23
7.887905e-24
3.830788e-24
1.692519e-24
7.102106e-25
2.854678e-25
1.139505e-25
4.652238e-26
2.022560e-26
7.686042e-27
1.452079e-27
-3.398956e-29
2.005962e-29
9.177906e-30
1.819739e-30
-1.378467e-30
-2.506805e-30
-1.954491e-30
9.999999e-01
1.000000e+00
1.000000e+00
9.999999e-01
1.000009e+00
1.000011e+00
1.000024e+00
9.942753e-01
9.638641e-01
8.861186e-01
7.588414e-01
5.118613e-01
3.893032e-01
1.920734e-01
9.235091e-02
3.718100e-02
1.167650e-02
2.328186e-03
6.135766e-05
1.758285e-05
1.582343e-05
1.278299e-05
6.327908e-06
1.311130e-06
4.524025e-07
3.183021e-07
2.053190e-07
1.269581e-07
6.256045e-08
2.928389e-08
1.381856e-08
6.406041e-09
2.990930e-09
1.384360e-09
6.709095e-10
2.191201e-10
2.674958e-11
3.497083e-12
3.229246e-12
2.450870e-12
1.178616e-12
2.225780e-13
-3.292682e-14
-2.317676e-14
-1.444216e-14
-6.481125e-15
-2.952088e-15
-7.658223e-16
1.986233e-17
9.108246e-18
6.280350e-18
3.201631e-18
1.373099e-18
4.624903e-19
9.838949e-20
3.933480e-21
4.800858e-21
3.949584e-21
2.833649e-21
1.458326e-21
6.177655e-22
1.595570e-22
1.384587e-23
3.315038e-24
2.350948e-24
1.160185e-24
6.667331e-25
2.063579e-25
5.136098e-26
1.577287e-26
1.633277e-26
1.393783e-26
9.189725e-27
4.515032e-27
2.000426e-27
8.279061e-28
3.089397e-28
9.521022e-29
2.159298e-29
2.328948e-30
1.000000e+00
1.000000e+00
1.000000e+00
1.000000e+00
1.000002e+00
1.000008e+00
1.000009e+00
9.997603e-01
9.914627e-01
9.548582e-01
8.817598e-01
7.453975e-01
5.158993e-01
3.937899e-01
1.986136e-01
9.888696e-02
4.197282e-02
1.452967e-02
3.622274e-03
3.362982e-04
1.312763e-05
1.553738e-05
1.310924e-05
9.249965e-06
3.290047e-06
4.174731e-07
1.697335e-07
1.286476e-07
4.716993e-08
2.752934e-08
1.141786e-08
6.530795e-09
2.620742e-09
1.077097e-09
6.446532e-10
5.495163e-10
3.094150e-10
7.879687e-11
4.532072e-12
1.707037e-12
1.682909e-12
1.244805e-12
6.280061e-13
2.616560e-13
8.503868e-14
1.933648e-15
-3.306206e-15
-2.803458e-15
-1.583634e-15
-7.118959e-16
-3.170309e-16
-8.590673e-17
4.677043e-19
9.329111e-19
7.079338e-19
2.473241e-19
3.165452e-20
2.109086e-21
2.334089e-21
1.437692e-21
9.618719e-22
6.541220e-22
3.371218e-22
1.493697e-22
6.653542e-23
2.999098e-23
1.405236e-23
6.424008e-24
2.998631e-24
1.154966e-24
1.917005e-25
-8.414687e-28
6.710504e-27
1.544050e-27
1.413600e-27
7.073603e-28
3.190508e-28
7.069407e-29
-4.274986e-29
-4.025865e-29
1.000000e+00
1.000000e+00
1.000000e+00
1.000000e+00
1.000000e+00
1.000003e+00
1.000008e+00
9.999078e-01
9.998721e-01
9.863849e-01
9.508930e-01
8.715901e-01
7.384845e-01
5.161681e-01
3.972045e-01
2.051732e-01
1.051780e-01
4.637023e-02
1.743646e-02
5.001678e-03
5.830414e-04
-1.861516e-05
5.969058e-06
8.888351e-06
7.938599e-06
5.123674e-06
2.501900e-06
1.233263e-06
6.006637e-07
2.853960e-07
1.363328e-07
6.538285e-08
3.156093e-08
1.106535e-08
2.025488e-09
5.761405e-10
4.443327e-10
3.286836e-10
1.507255e-10
3.215088e-11
1.244962e-12
1.036710e-12
3.799378e-13
2.370818e-13
1.817689e-13
1.095466e-13
4.925297e-14
2.104756e-14
6.937887e-15
-3.740613e-16
-3.536864e-16
-2.779622e-16
-1.589463e-16
-4.499672e-17
5.416752e-19
5.059982e-19
3.849560e-19
1.647573e-19
7.184081e-20
2.006430e-20
6.745128e-22
6.444330e-22
3.321114e-22
3.463978e-23
2.856223e-23
1.791609e-23
1.233313e-23
6.523738e-24
2.732597e-24
2.103710e-24
1.491327e-24
7.010844e-25
3.136836e-25
1.417788e-25
5.046261e-26
1.322474e-26
3.038100e-28
-1.649118e-28
-6.241974e-29
-2.263683e-29
1.000000e+00
1.000000e+00
1.000000e+00
1.000000e+00
1.000000e+00
1.000000e+00
1.000005e+00
9.999638e-01
1.000041e+00
9.976791e-01
9.838863e-01
9.447566e-01
8.635460e-01
7.326991e-01
5.157982e-01
4.002206e-01
2.115628e-01
1.116831e-01
5.053113e-02
2.037811e-02
7.023572e-03
1.728833e-03
2.156358e-04
9.538919e-06
5.643328e-06
2.058014e-06
1.479691e-06
1.109601e-06
7.689592e-08
1.673899e-07
1.349607e-07
6.151550e-08
3.212397e-08
2.534504e-08
1.504169e-08
4.778677e-09
4.724204e-10
3.043459e-10
2.485449e-10
1.678010e-10
8.335540e-11
3.817917e-11
1.479274e-11
2.080823e-12
1.532706e-14
9.104235e-14
4.806499e-14
2.009127e-14
1.483479e-14
1.038345e-14
2.978090e-15
-1.205918e-16
-1.877130e-16
-1.467523e-16
-8.052245e-17
-3.444088e-17
-9.414939e-18
1.575813e-19
8.777384e-20
6.798542e-20
3.869251e-20
1.774324e-20
7.938783e-21
3.581547e-21
1.591456e-21
7.128998e-22
3.249110e-22
1.464185e-22
3.198163e-23
2.699072e-24
1.212873e-24
7.013415e-25
1.662658e-25
1.366689e-25
1.049151e-25
5.956127e-26
3.072022e-26
1.253815e-26
3.874961e-27
6.828634e-28
1.000000e+00
1.000000e+00
1.000000e+00
1.000000e+00
1.000000e+00
1.000000e+00
1.000002e+00
9.999858e-01
9.999950e-01
9.999701e-01
9.962735e-01
9.803022e-01
9.387731e-01
8.560052e-01
7.277414e-01
5.150382e-01
4.022955e-01
2.166961e-01
1.189434e-01
5.366397e-02
2.136908e-02
7.327681e-03
2.220537e-03
7.261481e-04
3.106736e-04
1.378124e-04
6.135315e-05
2.752713e-05
1.229321e-05
5.599317e-06
2.659149e-06
8.684537e-07
1.166666e-07
2.306324e-08
1.962304e-08
1.536951e-08
8.126340e-09
2.086859e-09
2.665071e-10
1.193098e-10
8.093984e-11
3.687772e-11
2.971793e-11
1.849926e-11
8.774750e-12
3.952131e-12
1.456010e-12
1.936073e-13
5.912581e-15
8.174493e-15
7.379735e-15
4.754634e-15
2.376657e-15
8.008580e-16
1.597499e-18
-3.467407e-17
-3.003333e-17
-1.680558e-17
-7.049200e-18
-2.974258e-18
-1.257567e-18
-5.330751e-19
-2.260576e-19
-9.518372e-20
-4.152519e-20
-1.507264e-20
-4.044837e-22
3.158677e-22
1.512081e-22
7.775278e-23
3.627075e-23
1.613976e-23
4.945360e-24
5.758283e-25
1.044921e-25
5.725522e-26
3.836721e-26
2.027125e-26
8.958455e-27
2.969249e-27
1.000000e+00
1.000000e+00
1.000000e+00
1.000000e+00
1.000000e+00
1.000000e+00
1.000001e+00
9.999942e-01
9.999935e-01
1.000005e+00
9.996826e-01
9.948236e-01
9.764869e-01
9.335615e-01
8.477043e-01
7.250789e-01
5.158762e-01
4.044677e-01
2.191871e-01
1.311157e-01
6.148327e-02
2.461404e-02
8.062785e-03
1.880764e-03
3.158597e-04
1.198489e-04
5.734714e-05
2.794324e-05
1.088381e-05
4.785208e-06
2.654202e-06
2.174524e-06
1.204822e-06
3.008280e-07
2.457425e-08
1.506606e-08
1.172242e-08
8.591540e-09
4.438360e-09
2.117612e-09
8.062176e-10
1.538537e-10
3.119371e-11
1.279130e-11
4.601088e-12
3.732712e-12
3.047403e-12
1.937332e-12
9.232077e-13
2.223572e-13
8.127229e-15
-7.542543e-16
1.749979e-15
1.786299e-15
1.219401e-15
5.620248e-16
2.359417e-16
9.211813e-17
3.471702e-17
1.269712e-17
4.506295e-18
1.544415e-18
4.406551e-19
7.422435e-20
-3.184428e-20
-2.522081e-20
-1.833689e-20
-8.386472e-21
-3.676836e-21
-1.321954e-21
-1.812874e-22
1.620378e-23
1.351636e-23
8.072480e-24
3.017730e-24
4.621549e-25
-1.367917e-26
1.178652e-26
6.503837e-27
1.899832e-27
1.000000e+00
1.000000e+00
1.000000e+00
1.000000e+00
1.000000e+00
1.000000e+00
1.000000e+00
9.999987e-01
9.999951e-01
9.999961e-01
9.999927e-01
9.992797e-01
9.930119e-01
9.724521e-01
9.302712e-01
8.319805e-01
7.229345e-01
5.195431e-01
4.071258e-01
2.222638e-01
1.367991e-01
6.856944e-02
3.013811e-02
1.134548e-02
3.534827e-03
9.708840e-04
4.571966e-04
2.261393e-04
1.128417e-04
4.066011e-05
8.194239e-06
2.182296e-06
1.858736e-06
1.353399e-06
6.071419e-07
1.265645e-07
7.448590e-09
7.650966e-09
2.767567e-09
2.067965e-09
1.642373e-09
1.054082e-09
5.219905e-10
2.449944e-10
1.039389e-10
1.982495e-11
2.392003e-12
1.825128e-12
9.754740e-13
7.581284e-13
4.365298e-13
1.668046e-13
1.966441e-14
-1.197549e-15
9.642002e-16
3.434137e-16
1.118461e-16
2.157888e-17
3.363632e-18
3.347089e-18
2.777391e-18
1.066775e-18
8.782385e-19
4.587798e-19
1.960298e-19
5.317350e-20
8.703252e-21
-1.095299e-21
-3.089338e-21
-2.626365e-21
-1.664705e-21
-7.113506e-22
-1.393345e-22
6.024035e-24
6.331185e-24
4.204720e-24
2.002728e-24
8.204279e-25
2.153159e-25
7.161638e-27
1.000000e+00
1.000000e+00
1.000000e+00
1.000000e+00
1.000000e+00
1.000000e+00
1.000000e+00
1.000000e+00
9.999974e-01
9.999964e-01
9.999968e-01
9.999448e-01
9.990014e-01
9.902173e-01
9.712040e-01
9.210589e-01
8.232398e-01
7.196448e-01
5.218933e-01
4.078707e-01
2.281075e-01
1.365939e-01
6.948609e-02
3.122570e-02
1.174357e-02
3.389921e-03
5.638220e-04
2.300416e-04
1.202382e-04
9.765761e-05
5.397483e-05
1.565962e-05
2.032579e-06
1.270705e-06
1.023839e-06
6.742432e-07
3.372434e-07
1.552463e-07
6.160841e-08
1.083044e-08
1.504238e-09
8.724866e-10
5.124596e-10
2.489667e-10
1.906724e-10
1.216975e-10
6.094062e-11
2.061510e-11
2.062661e-12
4.899100e-13
4.280448e-13
3.524053e-13
2.286635e-13
1.110486e-13
5.016010e-14
2.239754e-14
9.929627e-15
4.343639e-15
1.882962e-15
8.490242e-16
2.666727e-16
1.588614e-17
6.574046e-19
-7.768797e-19
-3.057578e-19
-8.138224e-20
-2.587552e-20
-2.199876e-21
-1.331585e-21
-1.554118e-21
-1.500219e-21
-1.266945e-21
-8.286890e-22
-4.307642e-22
-1.872068e-22
-6.310466e-23
-4.207979e-24
1.179552e-24
7.515907e-25
3.462774e-25
1.000000e+00
1.000000e+00
1.000000e+00
1.000000e+00
1.000000e+00
1.000000e+00
1.000000e+00
1.000000e+00
9.999995e-01
9.999974e-01
9.999984e-01
9.999734e-01
9.999697e-01
9.975183e-01
9.897039e-01
9.672192e-01
9.135549e-01
8.161191e-01
7.167104e-01
5.215558e-01
4.108005e-01
2.332033e-01
1.463377e-01
7.659315e-02
3.642533e-02
1.521885e-02
5.254919e-03
1.339074e-03
2.903446e-04
9.738466e-05
8.365811e-05
6.148367e-05
2.885201e-05
7.432293e-06
9.725686e-07
5.224692e-07
3.062207e-07
1.422538e-07
1.195570e-07
7.789771e-08
3.727814e-08
1.826574e-08
6.732022e-09
1.149640e-09
1.620277e-10
1.224856e-10
7.135510e-11
5.243989e-11
3.250991e-11
1.244814e-11
2.042768e-12
3.192398e-13
2.272246e-13
1.034719e-13
3.159407e-14
1.639853e-14
8.451101e-15
3.612640e-15
1.014410e-15
7.957574e-16
6.719865e-16
3.959805e-16
1.713668e-16
7.388901e-17
3.273278e-17
1.168652e-17
1.296700e-18
-8.840525e-20
-2.141217e-20
-7.054904e-21
-1.453077e-21
-1.107954e-21
-7.860112e-22
-3.819763e-22
-1.728407e-22
-1.412563e-22
-8.684256e-23
-4.122171e-23
-1.838374e-23
-6.948081e-24
1.000000e+00
1.000000e+00
1.000000e+00
1.000000e+00
1.000000e+00
1.000000e+00
1.000000e+00
1.000000e+00
1.000000e+00
9.999986e-01
9.999988e-01
9.999867e-01
9.999872e-01
9.996369e-01
9.969719e-01
9.879942e-01
9.630235e-01
9.062854e-01
8.113069e-01
7.120204e-01
5.211000e-01
4.143882e-01
2.385664e-01
1.468904e-01
7.671035e-02
3.694508e-02
1.603300e-02
5.925048e-03
1.804476e-03
4.219599e-04
8.709548e-05
6.201650e-05
4.691616e-05
3.098048e-05
1.465343e-05
5.495017e-06
2.464514e-06
7.815405e-07
1.153111e-07
6.631126e-08
3.727018e-08
1.795499e-08
1.423993e-08
8.819143e-09
4.303635e-09
1.485763e-09
1.414651e-10
4.125616e-11
3.108315e-11
2.494613e-11
1.568800e-11
7.513599e-12
3.495604e-12
1.666990e-12
7.892984e-13
3.673330e-13
1.681274e-13
7.965467e-14
2.725280e-14
2.874623e-15
4.646746e-16
1.627539e-16
1.623002e-16
6.606559e-17
2.897301e-17
2.412067e-17
1.537485e-17
6.242524e-18
9.788524e-19
-4.092763e-20
-1.466434e-20
-8.705424e-21
-4.454419e-21
-2.396636e-21
-9.876076e-22
-1.583399e-22
-7.333912e-23
-3.083645e-23
-1.175311e-23
-6.183669e-24
1.000000e+00
1.000000e+00
1.000000e+00
1.000000e+00
1.000000e+00
1.000000e+00
1.000000e+00
1.000000e+00
1.000000e+00
9.999994e-01
9.999995e-01
9.999941e-01
9.999910e-01
9.999880e-01
9.993680e-01
9.962396e-01
9.860269e-01
9.586555e-01
8.993549e-01
8.088648e-01
7.067434e-01
5.196898e-01
4.154644e-01
2.429320e-01
1.590852e-01
8.337491e-02
4.026495e-02
1.764373e-02
6.883292e-03
2.318406e-03
6.505152e-04
1.572258e-04
5.661819e-05
3.611526e-05
2.290857e-05
1.056486e-05
4.105611e-06
2.583419e-06
1.423311e-06
7.191923e-07
2.902859e-07
6.778929e-08
1.312845e-08
8.955640e-09
4.631797e-09
3.586656e-09
2.191810e-09
8.302401e-10
1.459403e-10
1.498774e-11
8.154994e-12
7.428286e-12
3.573486e-12
9.823934e-13
5.701051e-13
3.299793e-13
1.317751e-13
7.706039e-14
6.446657e-14
3.898397e-14
1.778524e-14
8.015500e-15
3.735500e-15
1.400568e-15
2.078370e-16
1.201762e-17
1.427048e-17
1.205133e-17
7.574208e-18
3.706900e-18
1.594799e-18
7.199805e-19
2.232228e-19
2.453921e-21
-9.150891e-22
-1.404181e-21
-8.477778e-22
-4.122353e-22
-2.106464e-22
-8.933525e-23
1.000000e+00
1.000000e+00
1.000000e+00
1.000000e+00
1.000000e+00
1.000000e+00
1.000000e+00
1.000000e+00
1.000000e+00
9.999998e-01
9.999998e-01
9.999983e-01
9.999937e-01
9.999951e-01
9.999394e-01
9.991275e-01
9.953524e-01
9.838186e-01
9.547375e-01
8.885415e-01
8.115540e-01
7.049476e-01
5.184890e-01
4.165040e-01
2.444372e-01
1.648741e-01
8.848100e-02
4.339074e-02
1.930569e-02
7.722655e-03
2.719428e-03
8.154910e-04
2.190949e-04
7.313154e-05
4.142341e-05
2.752910e-05
1.294444e-05
3.229307e-06
1.271893e-06
6.893057e-07
5.628167e-07
3.627669e-07
1.913784e-07
7.046013e-08
1.087231e-08
3.356787e-09
2.203391e-09
1.690750e-09
1.059868e-09
5.083162e-10
2.353249e-10
1.080448e-10
5.223659e-11
2.402426e-11
1.123062e-11
5.441517e-12
1.885296e-12
2.373727e-13
2.829408e-14
2.981782e-14
1.448397e-14
7.738922e-15
3.690271e-15
2.849265e-15
1.837725e-15
7.274583e-16
1.228222e-16
1.421538e-17
7.710453e-18
3.141417e-18
1.405020e-18
7.205499e-19
5.728321e-19
3.414981e-19
1.592659e-19
6.747989e-20
2.918895e-20
1.246759e-20
5.325252e-21
1.970180e-21
1.000000e+00
1.000000e+00
1.000000e+00
1.000000e+00
1.000000e+00
1.000000e+00
1.000000e+00
1.000000e+00
1.000000e+00
9.999999e-01
9.999998e-01
9.999998e-01
9.999967e-01
9.999955e-01
9.999944e-01
9.998372e-01
9.989992e-01
9.937774e-01
9.846353e-01
9.403197e-01
8.937722e-01
7.989814e-01
7.032590e-01
5.214271e-01
4.170566e-01
2.477700e-01
1.704378e-01
9.362205e-02
4.703353e-02
2.140802e-02
8.804118e-03
3.212699e-03
1.009072e-03
2.692227e-04
7.284163e-05
3.816471e-05
2.948010e-05
1.967258e-05
9.261165e-06
2.946611e-06
5.824613e-07
3.541817e-07
1.920142e-07
1.567731e-07
9.906481e-08
3.992321e-08
8.717616e-09
1.497044e-09
5.900150e-10
4.789212e-10
1.691577e-10
9.366441e-11
5.334368e-11
2.000124e-11
9.357297e-12
5.477316e-12
4.479762e-12
2.736861e-12
1.282315e-12
5.775962e-13
2.703665e-13
1.029193e-13
1.648327e-14
2.508601e-15
1.651276e-15
1.393070e-15
9.029356e-16
4.351353e-16
1.964169e-16
8.805080e-17
2.822047e-17
2.007037e-18
-7.332702e-20
2.635929e-19
1.596160e-19
3.447819e-20
1.983239e-20
-3.189846e-21
4.896429e-22
6.285811e-22
1.000000e+00
1.000000e+00
1.000000e+00
1.000000e+00
1.000000e+00
1.000000e+00
1.000000e+00
1.000000e+00
1.000000e+00
1.000000e+00
9.999999e-01
9.999999e-01
9.999991e-01
9.999967e-01
9.999982e-01
9.999276e-01
9.999245e-01
9.968752e-01
9.968216e-01
9.755320e-01
9.436251e-01
8.871639e-01
7.906700e-01
7.010108e-01
5.218679e-01
4.173369e-01
2.502495e-01
1.743264e-01
9.758129e-02
5.027531e-02
2.345305e-02
9.937478e-03
3.801662e-03
1.285023e-03
3.685023e-04
8.330824e-05
2.902454e-05
1.987460e-05
1.472224e-05
9.879924e-06
5.085898e-06
1.846351e-06
5.307786e-07
1.461412e-07
9.334286e-08
7.660688e-08
4.936131e-08
2.454626e-08
1.164289e-08
5.431438e-09
2.607736e-09
1.232876e-09
6.069508e-10
2.863467e-10
1.012617e-10
1.562724e-11
4.050242e-12
2.565446e-12
1.071785e-12
4.281798e-13
2.566031e-13
2.097886e-13
1.369041e-13
5.529299e-14
1.018906e-14
1.030206e-15
8.616038e-16
3.267636e-16
1.688315e-16
8.972778e-17
7.149956e-17
4.324795e-17
1.994516e-17
8.894137e-18
4.180948e-18
1.827232e-18
8.340429e-19
3.777333e-19
1.681413e-19
7.152508e-20
1.000000e+00
1.000000e+00
1.000000e+00
1.000000e+00
1.000000e+00
1.000000e+00
1.000000e+00
1.000000e+00
1.000000e+00
1.000000e+00
1.000000e+00
9.999999e-01
9.999999e-01
9.999983e-01
9.999984e-01
9.999670e-01
9.999794e-01
9.986514e-01
9.985988e-01
9.924122e-01
9.749364e-01
9.412261e-01
8.823116e-01
7.836314e-01
6.994006e-01
5.243896e-01
4.205530e-01
2.545380e-01
1.789669e-01
1.013929e-01
5.351343e-02
2.546049e-02
1.098698e-02
4.327576e-03
1.561583e-03
5.120695e-04
1.469914e-04
4.539717e-05
1.918145e-05
1.194366e-05
7.922385e-06
4.268091e-06
2.345006e-06
1.154110e-06
4.069587e-07
7.582156e-08
4.647613e-08
2.436426e-08
1.084896e-08
5.321393e-09
2.088039e-09
1.255640e-09
5.763486e-10
2.906312e-10
2.330439e-10
1.435266e-10
6.833085e-11
3.216514e-11
1.568402e-11
6.117433e-12
1.054846e-12
2.141810e-13
1.376635e-13
1.063496e-13
6.809079e-14
3.356264e-14
1.532155e-14
7.259577e-15
2.444059e-15
2.410531e-16
3.103143e-17
3.169696e-17
2.045033e-17
7.681649e-18
3.288561e-18
5.764495e-19
6.740857e-19
3.701583e-19
1.308623e-19
7.249125e-20
1.000000e+00
1.000000e+00
1.000000e+00
1.000000e+00
1.000000e+00
1.000000e+00
1.000000e+00
1.000000e+00
1.000000e+00
1.000000e+00
1.000000e+00
1.000000e+00
1.000000e+00
9.999992e-01
9.999994e-01
9.999847e-01
9.999958e-01
9.993960e-01
9.993743e-01
9.979762e-01
9.905429e-01
9.730745e-01
9.372721e-01
8.796936e-01
7.714913e-01
6.917796e-01
5.232278e-01
4.221392e-01
2.585201e-01
1.839635e-01
1.048064e-01
5.698620e-02
2.781735e-02
1.219416e-02
4.824168e-03
1.739684e-03
5.752483e-04
1.817729e-04
6.013549e-05
2.364028e-05
1.259338e-05
7.831578e-06
3.713305e-06
1.702561e-06
1.154718e-06
6.772632e-07
3.304180e-07
1.642805e-07
8.428010e-08
4.276409e-08
2.139431e-08
1.088813e-08
4.328179e-09
9.801410e-10
2.528345e-10
1.258099e-10
4.845265e-11
3.155018e-11
1.571310e-11
1.229749e-11
8.070642e-12
3.377033e-12
6.561415e-13
1.139010e-13
6.922278e-14
3.110037e-14
1.286801e-14
7.357709e-15
5.913873e-15
3.631458e-15
1.712842e-15
7.698118e-16
3.574835e-16
1.607323e-16
7.363215e-17
3.423035e-17
1.532811e-17
7.293600e-18
2.383900e-18
3.512315e-19
1.000000e+00
1.000000e+00
1.000000e+00
1.000000e+00
1.000000e+00
1.000000e+00
1.000000e+00
1.000000e+00
1.000000e+00
1.000000e+00
1.000000e+00
1.000000e+00
1.000000e+00
9.999997e-01
9.999997e-01
9.999932e-01
9.999958e-01
9.997735e-01
9.995597e-01
9.994676e-01
9.969860e-01
9.892631e-01
9.704597e-01
9.338003e-01
8.782817e-01
7.661804e-01
6.868967e-01
5.219401e-01
4.232429e-01
2.619152e-01
1.899059e-01
1.067458e-01
5.990036e-02
3.034541e-02
1.378647e-02
5.609149e-03
2.045548e-03
6.767446e-04
2.126495e-04
7.066639e-05
2.673301e-05
1.345079e-05
9.768417e-06
4.507636e-06
1.431952e-06
6.303971e-07
3.179706e-07
1.624189e-07
7.329813e-08
3.815181e-08
2.085246e-08
1.086458e-08
8.582229e-09
5.533029e-09
2.903319e-09
1.345209e-09
6.512772e-10
2.738108e-10
5.885910e-11
1.108856e-11
8.019899e-12
6.453558e-12
4.122526e-12
2.065105e-12
9.373349e-13
4.433847e-13
1.533850e-13
2.097784e-14
5.822427e-15
2.696785e-15
9.197408e-16
6.714245e-16
3.452102e-16
8.518344e-17
5.415596e-17
2.343146e-17
9.108028e-18
7.335732e-18
6.068313e-18
3.065380e-18
1.000000e+00
1.000000e+00
1.000000e+00
1.000000e+00
1.000000e+00
1.000000e+00
1.000000e+00
1.000000e+00
1.000000e+00
1.000000e+00
1.000000e+00
1.000000e+00
1.000000e+00
9.999998e-01