# vtk DataFile Version 3.0
MUSCL
ASCII
DATASET STRUCTURED_POINTS
DIMENSIONS 80 80 1
ORIGIN 0 0 0
SPACING 0.0125 0.0125 1
POINT_DATA 6400
SCALARS Temperature double 1
LOOKUP_TABLE default
0.000000e+00
-6.739991e-01
-1.939466e-01
-2.456610e-02
-3.486582e-04
3.908294e-05
1.038450e-06
-6.234390e-07
-2.881975e-07
-9.015619e-08
-3.162642e-08
-1.320225e-08
-5.904319e-09
-2.738058e-09
-1.037752e-09
-4.301838e-10
-2.593570e-11
-1.237870e-13
9.428598e-13
2.290887e-13
4.703855e-15
5.966617e-16
-4.939654e-15
-4.209466e-15
1.317577e-17
1.896138e-17
1.541735e-16
2.701237e-16
2.365719e-16
8.096964e-17
1.801289e-18
-7.394439e-19
-3.996426e-19
-1.283926e-19
-4.934830e-21
1.620898e-21
1.086747e-22
2.333893e-23
2.703342e-23
9.869887e-23
1.601799e-22
1.329340e-22
3.488246e-23
-1.543563e-25
-1.701481e-25
-1.134138e-25
-4.554446e-26
-1.784708e-26
-7.356431e-27
-3.343378e-27
-1.525136e-27
-3.729088e-28
-1.291370e-29
2.147780e-30
1.480922e-30
5.714025e-31
2.321481e-31
9.895355e-32
4.184825e-32
1.709669e-32
6.892652e-33
2.920833e-33
1.381888e-33
7.751532e-34
4.356412e-34
1.104402e-34
2.559372e-36
-1.774265e-36
-1.407672e-36
-7.937600e-37
-4.128610e-37
-2.019123e-37
-9.081633e-38
-3.557689e-38
-1.220577e-38
-3.865764e-39
-1.184559e-39
-3.363951e-40
-7.037005e-41
-5.261977e-42
1.326001e+00
6.739991e-01
1.939466e-01
2.456610e-02
3.486582e-04
-3.908294e-05
-1.038450e-06
6.234390e-07
2.881975e-07
9.015619e-08
3.162642e-08
1.320225e-08
5.904319e-09
2.738058e-09
1.037752e-09
4.301838e-10
2.593570e-11
1.237870e-13
-9.428598e-13
-2.290887e-13
-4.703855e-15
-5.966617e-16
4.939654e-15
4.209466e-15
-1.317577e-17
-1.896138e-17
-1.541735e-16
-2.701237e-16
-2.365719e-16
-8.096964e-17
-1.801289e-18
7.394439e-19
3.996426e-19
1.283926e-19
4.934830e-21
-1.620898e-21
-1.086747e-22
-2.333893e-23
-2.703342e-23
-9.869887e-23
-1.601799e-22
-1.329340e-22
-3.488246e-23
1.543563e-25
1.701481e-25
1.134138e-25
4.554446e-26
1.784708e-26
7.356431e-27
3.343378e-27
1.525136e-27
3.729088e-28
1.291370e-29
-2.147780e-30
-1.480922e-30
-5.714025e-31
-2.321481e-31
-9.895355e-32
-4.184825e-32
-1.709669e-32
-6.892652e-33
-2.920833e-33
-1.381888e-33
-7.751532e-34
-4.356412e-34
-1.104402e-34
-2.559372e-36
1.774265e-36
1.407672e-36
7.937600e-37
4.128610e-37
2.019123e-37
9.081633e-38
3.557689e-38
1.220577e-38
3.865764e-39
1.184559e-39
3.363951e-40
7.037005e-41
5.261977e-42
1.041930e+00
9.580702e-01
5.986579e-01
2.397749e-01
5.879420e-02
3.936572e-03
-1.329159e-04
-5.998301e-05
-2.464923e-05
-1.083618e-05
-4.429243e-06
-1.780548e-06
-7.086054e-07
-1.685161e-07
-1.408966e-09
7.436859e-10
6.060829e-10
2.040677e-10
2.428736e-12
-7.097665e-13
-1.953659e-13
1.126712e-14
1.935946e-14
1.858855e-14
1.229401e-14
5.776858e-15
2.447701e-15
8.204864e-16
-2.083011e-16
-2.172747e-16
-1.532727e-16
-7.027644e-17
-1.817808e-17
1.964421e-19
1.363636e-19
8.014206e-20
2.703914e-20
9.203586e-21
3.322471e-21
9.422290e-22
2.814796e-24
-1.255406e-22
-9.454731e-23
-6.536003e-23
-3.315016e-23
-1.505942e-23
-6.167038e-24
-2.401413e-24
-9.594709e-25
-3.782901e-25
-1.047606e-25
-3.445477e-27
2.221118e-28
4.004439e-28
1.991484e-28
8.281096e-29
3.390246e-29
1.363033e-29
5.402756e-30
2.124478e-30
8.372578e-31
3.429180e-31
1.250821e-31
3.940136e-32
-7.424072e-34
-3.385539e-34
-3.126965e-34
-1.970553e-34
-1.165348e-34
-6.576147e-35
-3.431615e-35
-1.623655e-35
-6.925864e-36
-2.670066e-36
-9.334061e-37
-2.967587e-37
-8.628656e-38
-2.250927e-38
-4.822048e-39
-5.799647e-41
9.989380e-01
1.001062e+00
8.858036e-01
5.930548e-01
2.706860e-01
8.389346e-02
1.581309e-02
1.295879e-03
5.012719e-04
2.087800e-04
7.607599e-05
8.617051e-06
-9.064608e-07
-6.631996e-07
-3.714923e-07
-1.360056e-07
-7.966000e-09
8.119102e-10
3.895252e-10
7.625676e-11
-9.156052e-13
-2.206563e-12
-1.108776e-12
-3.809285e-13
-1.233997e-13
-4.715825e-14
-3.242011e-15
7.953537e-16
1.018943e-15
9.490354e-16
1.291861e-16
-6.601295e-17
-6.338484e-17
-3.711986e-17
-1.650423e-17
-6.789155e-18
-2.633429e-18
-9.744382e-19
-3.528125e-19
-1.225450e-19
-3.443144e-20
-5.328450e-21
1.908358e-22
-2.047332e-24
-9.738319e-24
-1.270979e-23
-4.044588e-24
9.413285e-25
6.396350e-25
6.849763e-26
-4.930939e-26
-1.221856e-25
-8.865032e-26
-4.088412e-26
-1.814457e-26
-7.707908e-27
-3.155808e-27
-1.250099e-27
-4.824303e-28
-1.848747e-28
-5.799289e-29
-8.701623e-30
1.715191e-31
1.477760e-31
8.802768e-32
4.967127e-32
3.099612e-32
1.878389e-32
1.034675e-32
5.088822e-33
2.238389e-33
8.889960e-34
3.228155e-34
1.084502e-34
3.487358e-35
9.882006e-36
2.171316e-36
2.823646e-37
4.593110e-39
-6.693558e-39
9.998861e-01
1.000114e+00
9.862844e-01
8.523280e-01
5.808991e-01
2.959995e-01
9.884686e-02
2.197856e-02
6.744381e-04
2.041933e-04
1.378020e-04
9.549102e-05
3.861109e-05
7.089672e-06
-4.532819e-07
-2.903720e-07
-1.932486e-07
-5.229230e-08
-8.273469e-10
3.682467e-10
3.296473e-10
1.537088e-10
6.511237e-11
2.783304e-11
9.086841e-12
3.904374e-13
9.177220e-15
-2.729852e-14
-1.031120e-14
5.337533e-16
8.074925e-16
6.619072e-16
3.476510e-16
1.740353e-16
8.012897e-17
3.387423e-17
1.034763e-17
1.337843e-18
-4.075796e-19
-2.084906e-19
-1.037420e-19
-4.767233e-20
-1.720480e-20
-5.935110e-21
-2.255914e-21
-9.032095e-22
-3.724098e-22
-1.553989e-22
-6.338961e-23
-2.052728e-23
-1.023217e-24
-3.161141e-26
1.348347e-25
7.506777e-26
1.091703e-26
-3.527577e-27
-3.101297e-27
-1.067471e-27
-5.803953e-28
-2.802156e-28
-1.452700e-28
-7.954642e-29
-2.968465e-29
-1.236054e-29
-5.471678e-30
-2.704422e-30
-1.405905e-30
-7.115266e-31
-3.386184e-31
-1.487759e-31
-6.064746e-32
-2.320434e-32
-8.030433e-33
-1.575576e-33
1.653061e-35
1.821012e-35
9.125719e-36
3.319533e-36
1.104571e-36
5.397348e-37
9.999694e-01
1.000031e+00
1.000014e+00
9.647078e-01
8.295963e-01
5.645092e-01
3.366285e-01
1.267963e-01
3.477100e-02
2.567057e-03
7.456465e-05
7.439784e-05
6.712859e-05
4.553983e-05
2.081599e-05
3.915014e-06
-2.583934e-07
-1.775209e-07
-1.054994e-07
-4.664262e-08
-2.021508e-08
-8.933326e-09
-2.901105e-09
-2.620998e-11
2.805936e-11
1.371380e-11
6.032879e-12
1.039779e-12
-1.441518e-14
-1.275935e-14
-5.471520e-15
-1.811339e-15
-5.753608e-16
-1.756932e-16
-4.015783e-17
3.521883e-17
2.778771e-17
1.545609e-17
7.053931e-18
2.531384e-18
8.159327e-19
2.242852e-19
5.160783e-20
9.210497e-21
6.689287e-22
-2.087499e-22
-9.524088e-23
-4.952263e-23
-4.266204e-23
-1.716113e-23
-2.100110e-23
-1.433636e-23
-7.523255e-24
-3.994325e-24
-2.080258e-24
-1.088509e-24
-4.513026e-25
-5.463390e-26
2.108546e-27
7.228865e-28
-7.277708e-29
-8.254399e-29
-5.872702e-29
4.565452e-30
-2.971546e-30
-1.754340e-30
1.020019e-29
4.922876e-31
-6.402806e-32
-1.257027e-31
4.136654e-32
1.594857e-32
-2.250199e-33
-4.433491e-33
-2.952222e-33
-1.029576e-33
-3.218375e-34
-1.029998e-34
-3.696792e-35
-3.549674e-36
9.999954e-01
1.000005e+00
1.000016e+00
9.984292e-01
9.484994e-01
8.110823e-01
5.427227e-01
3.576860e-01
1.478959e-01
4.999192e-02
9.628126e-03
3.397790e-04
1.723133e-05
4.129536e-05
3.587768e-05
2.313732e-05
1.156305e-05
4.953119e-06
2.117089e-06
8.162576e-07
1.413587e-07
-9.569969e-09
-6.924052e-09
-4.612856e-09
-1.041104e-09
8.362798e-12
8.292660e-12
6.526327e-12
3.299582e-12
1.539285e-12
7.138601e-13
3.318472e-13
1.522499e-13
5.718280e-14
3.808397e-15
-3.005574e-16
-1.467071e-16
-5.268189e-17
-1.988776e-17
-9.334029e-18
-4.785835e-18
-2.422547e-18
-1.178515e-18
-5.528982e-19
-2.548873e-19
-1.148948e-19
-4.621507e-20
-1.519120e-20
-3.809961e-21
-7.121116e-22
-1.612392e-23
2.478853e-23
4.741131e-24
-2.465814e-24
-4.011223e-25
-9.384063e-25
-8.572586e-25
-6.338944e-25
-2.253948e-25
-1.646650e-26
2.293972e-27
9.386915e-28
6.763722e-28
-3.918574e-28
-8.895558e-28
-6.121416e-28
-2.656318e-28
-1.073915e-28
-4.064747e-29
-1.392753e-29
-4.590076e-30
-1.181882e-30
-6.344443e-32
-2.008221e-33
-2.074450e-34
1.651342e-34
8.772428e-34
5.252600e-34
-4.231686e-35
-3.358492e-35
9.999987e-01
1.000001e+00
1.000004e+00
1.000088e+00
9.919790e-01
9.349205e-01
7.950337e-01
5.168318e-01
3.729509e-01
1.554109e-01
5.843249e-02
1.602010e-02
2.157868e-03
6.324178e-05
2.984756e-05
2.165674e-05
1.104225e-05
4.718515e-06
2.119709e-06
1.301834e-06
9.294174e-07
3.704533e-07
5.418903e-08
-6.528580e-09
-4.106296e-09
-2.426166e-09
-1.075576e-09
-4.764948e-10
-2.093437e-10
-9.112593e-11
-3.751535e-11
-9.604808e-12
-5.689080e-14
8.769751e-14
6.719988e-14
3.137468e-14
1.443625e-14
6.462723e-15
2.820938e-15
1.207822e-15
5.112431e-16
2.154306e-16
8.386927e-17
2.411233e-17
5.274927e-18
2.080465e-18
6.618007e-19
1.716866e-19
3.585445e-20
4.800900e-21
-1.292263e-21
-1.146716e-21
-5.807990e-22
-2.629531e-22
-8.510577e-23
-9.766566e-25
-3.270170e-27
-4.027242e-25
-4.819340e-25
-3.701625e-25
-1.779801e-25
-9.027137e-26
-2.394152e-26
-5.387946e-28
-8.006868e-28
-3.686934e-28
-1.524082e-28
-1.194013e-28
-6.107914e-29
-2.925477e-29
-1.300589e-29
-5.295213e-30
-2.054406e-30
-6.582223e-31
-2.497867e-31
-6.248094e-32
6.266998e-34
1.019710e-33
1.207276e-33
1.450323e-33
9.999992e-01
1.000001e+00
1.000000e+00
1.000031e+00
1.000037e+00
9.851931e-01
9.218892e-01
7.795503e-01
5.212956e-01
3.783505e-01
1.649730e-01
6.665083e-02
2.054896e-02
4.320019e-03
3.869764e-04
8.206678e-05
4.694378e-05
2.597639e-05
9.806012e-06
2.079649e-06
9.245791e-07
7.401454e-07
4.502856e-07
2.175418e-07
9.010206e-08
3.674793e-08
1.492749e-08
6.342016e-09
1.808483e-09
-5.789629e-11
-5.333405e-11
-3.591616e-11
-1.919264e-11
-8.054208e-12
-3.430462e-12
-1.482531e-12
-6.443299e-13
-2.803165e-13
-1.214357e-13
-5.376520e-14
-1.419543e-14
-1.350686e-16
1.329810e-16
7.932728e-17
2.833762e-17
2.938069e-18
7.181897e-19
3.099989e-19
9.156825e-20
1.796229e-20
-5.750557e-22
-7.851122e-22
-5.571477e-22
-4.329202e-22
-3.028973e-22
-2.031803e-22
-5.836536e-23
-1.782492e-24
3.490390e-25
-5.732787e-26
5.730341e-27
-3.554011e-26
-5.614497e-26
-5.651638e-26
-3.520359e-26
-1.394983e-26
-2.912682e-27
-1.351196e-28
5.937365e-29
2.356272e-29
5.516125e-30
-1.505843e-31
-7.405027e-32
-4.312157e-33
-1.977612e-31
-1.763805e-31
-9.460030e-32
-3.534721e-32
-1.088484e-32
-2.366011e-33
9.999996e-01
1.000000e+00
1.000000e+00
1.000014e+00
1.000024e+00
9.989348e-01
9.787280e-01
9.080625e-01
7.699194e-01
5.221806e-01
3.810418e-01
1.771698e-01
7.574533e-02
2.543816e-02
5.931417e-03
4.609963e-04
3.431207e-05
3.022178e-05
2.552524e-05
1.397890e-05
3.858752e-06
7.019973e-07
4.547260e-07
2.246830e-07
8.637030e-08
3.741643e-08
1.420108e-08
6.131045e-09
4.947475e-09
2.825888e-09
1.199105e-09
4.979812e-10
2.024694e-10
8.220713e-11
3.356736e-11
1.372095e-11
5.875315e-12
1.616900e-12
-5.567563e-14
-5.748500e-14
-4.917467e-14
-2.511847e-14
-4.294752e-15
1.958365e-16
8.932811e-17
4.091331e-17
7.815958e-18
4.912301e-19
-1.032794e-19
-9.171849e-20
-4.981077e-20
-2.187742e-20
-5.795721e-21
-3.869339e-22
-2.360393e-22
-1.940493e-22
-1.509672e-22
-9.533568e-23
-4.485804e-23
-2.082626e-23
-8.122515e-24
-1.508695e-24
9.197687e-27
-3.949750e-26
-3.245671e-26
-2.844077e-26
-2.005726e-26
-1.120671e-26
-4.803401e-27
-1.871294e-27
-6.648461e-28
-2.094063e-28
-6.225644e-29
-1.341440e-29
-1.494037e-30
7.176433e-31
7.192257e-31
3.305400e-31
4.185940e-32
-6.028316e-33
9.999999e-01
1.000000e+00
1.000000e+00
1.000003e+00
1.000015e+00
1.000001e+00
9.972260e-01
9.710654e-01
8.970296e-01
7.616758e-01
5.237189e-01
3.741250e-01
1.875301e-01
8.585852e-02
3.202670e-02
8.929649e-03
1.244903e-03
4.021635e-05
2.592277e-05
2.221813e-05
1.615888e-05
6.963533e-06
2.142238e-06
8.588760e-07
4.877108e-07
2.629889e-07
1.060896e-07
2.509720e-08
5.090989e-09
2.813235e-09
1.180194e-09
5.066841e-10
2.070850e-10
5.879222e-11
2.475432e-11
6.625163e-12
5.583628e-12
4.557290e-12
2.450467e-12
5.595903e-13
-4.385507e-14
-3.906732e-14
-2.904871e-14
-1.209522e-14
-1.593639e-15
7.532778e-17
4.747994e-17
2.494902e-17
1.145576e-17
5.358636e-18
1.230366e-18
7.733756e-23
-2.296792e-20
-1.565650e-20
-7.551258e-21
-1.945476e-21
-1.804053e-22
-9.348744e-23
-1.929156e-23
-1.979965e-23
-1.484402e-23
-9.194637e-24
-4.337642e-24
-1.565744e-24
-2.744739e-25
-2.153648e-26
-1.415781e-26
-1.030409e-26
-4.182371e-27
-1.219865e-27
9.262917e-28
5.463766e-28
-5.553320e-29
-3.197621e-29
-1.101244e-29
-2.074015e-30
2.384388e-31
4.416694e-31
4.542641e-31
3.545208e-31
9.999999e-01
1.000000e+00
1.000000e+00
1.000000e+00
1.000007e+00
1.000009e+00
9.999780e-01
9.941981e-01
9.639193e-01
8.862257e-01
7.589870e-01
5.119676e-01
3.893741e-01
1.921686e-01
9.245386e-02
3.725067e-02
1.171977e-02
2.367870e-03
6.718599e-05
1.325619e-05
1.676338e-05
1.381693e-05
6.915883e-06
1.804223e-06
5.220500e-07
2.682246e-07
2.048109e-07
1.312341e-07
6.596206e-08
2.975092e-08
1.395182e-08
6.628701e-09
3.112901e-09
1.366185e-09
6.381325e-10
2.161365e-10
2.909649e-11
3.647258e-12
3.423741e-12
2.460024e-12
1.292959e-12
2.893807e-13
-2.657840e-14
-2.230212e-14
-1.505056e-14
-7.257796e-15
-3.213704e-15
-8.849434e-16
-8.947884e-18
6.455071e-18
5.456699e-18
3.123109e-18
1.519174e-18
4.823905e-19
-2.421885e-22
-4.444601e-21
-3.819456e-21
-1.771608e-21
-7.887794e-22
-1.757925e-22
-1.060095e-23
-6.696391e-24
-4.381084e-24
-3.160962e-24
-2.017248e-24
-9.964939e-25
-4.786506e-25
-2.259416e-25
-9.065815e-26
-2.822825e-26
-6.665442e-27
-8.456926e-29
1.480321e-27
1.021909e-27
4.859383e-28
2.534916e-28
8.168126e-29
1.823282e-30
4.079183e-31
3.002236e-31
1.000000e+00
1.000000e+00
1.000000e+00
1.000000e+00
1.000002e+00
1.000006e+00
1.000010e+00
9.997556e-01
9.914804e-01
9.548928e-01
8.818200e-01
7.454726e-01
5.159576e-01
3.938501e-01
1.987110e-01
9.897649e-02
4.203941e-02
1.457286e-02
3.645187e-03
3.529892e-04
2.263415e-05
1.740224e-05
1.381550e-05
9.965710e-06
3.802541e-06
7.409512e-07
1.667760e-07
8.616171e-08
6.126068e-08
3.051889e-08
1.089830e-08
6.434014e-09
3.149239e-09
1.351182e-09
6.144179e-10
5.118181e-10
2.851329e-10
7.234107e-11
3.349478e-12
2.394967e-12
1.842047e-12
1.260021e-12
6.796328e-13
2.841579e-13
9.343326e-14
6.780491e-15
-3.247296e-15
-2.832201e-15
-1.564369e-15
-6.723693e-16
-3.009429e-16
-7.952939e-17
1.404464e-18
9.705939e-19
7.115045e-19
3.065193e-19
6.371686e-20
-1.552393e-21
-1.534255e-21
-1.008663e-21
-4.382377e-22
-1.286711e-22
-9.179401e-24
-9.802015e-25
-1.334229e-24
-6.705973e-25
-4.441185e-25
-1.779890e-25
-7.404531e-28
1.960646e-26
-7.384241e-27
-8.998433e-28
1.379741e-27
1.004715e-27
-5.552860e-29
1.920584e-28
1.877758e-28
1.448305e-28
4.441801e-29
8.602647e-31
1.000000e+00
1.000000e+00
1.000000e+00
1.000000e+00
1.000000e+00
1.000002e+00
1.000007e+00
9.999119e-01
9.998686e-01
9.863610e-01
9.508871e-01
8.715955e-01
7.384918e-01
5.161871e-01
3.972479e-01
2.052622e-01
1.052621e-01
4.643776e-02
1.748760e-02
5.031113e-03
6.163169e-04
2.583949e-05
8.487359e-06
9.433872e-06
8.296361e-06
5.218950e-06
2.504889e-06
1.209488e-06
5.856539e-07
2.828354e-07
1.350538e-07
6.342883e-08
3.216854e-08
1.206460e-08
2.673746e-09
4.841066e-10
4.193784e-10
3.152939e-10
1.413260e-10
3.009683e-11
5.064466e-13
8.856160e-13
5.863534e-13
2.206791e-13
1.923173e-13
1.131298e-13
4.988709e-14
1.938594e-14
5.952590e-15
2.562165e-16
-3.072102e-16
-2.601347e-16
-1.512567e-16
-4.343283e-17
-3.537281e-19
4.637246e-19
3.682967e-19
2.013628e-19
8.454988e-20
1.630678e-20
-3.096107e-22
-4.146338e-22
-2.514383e-22
-1.036775e-22
-4.367950e-23
-1.802627e-23
-7.441765e-24
-2.771606e-24
-4.885070e-25
6.771660e-27
1.467512e-25
1.147071e-25
5.777102e-26
2.951534e-26
1.546071e-26
3.414251e-27
2.494244e-28
1.295161e-28
1.314523e-28
8.244931e-29
1.000000e+00
1.000000e+00
1.000000e+00
1.000000e+00
1.000000e+00
1.000000e+00
1.000004e+00
9.999639e-01
9.999906e-01
9.977261e-01
9.838990e-01
9.447166e-01
8.634747e-01
7.326216e-01
5.157734e-01
4.002439e-01
2.116400e-01
1.117659e-01
5.060593e-02
2.043091e-02
7.065199e-03
1.767152e-03
2.222948e-04
1.709437e-05
-2.208704e-07
1.923362e-06
1.564665e-06
9.423385e-07
8.069617e-08
1.839625e-07
1.247624e-07
3.596923e-08
3.145757e-08
2.496172e-08
1.502723e-08
4.911849e-09
4.606940e-10
2.562248e-10
2.438629e-10
1.654952e-10
8.285757e-11
3.916487e-11
1.481765e-11
2.414626e-12
1.907950e-13
9.883437e-14
2.679935e-14
1.818973e-14
1.227926e-14
7.015399e-15
2.954719e-15
5.115250e-16
-1.412838e-16
-1.233434e-16
-7.084710e-17
-3.242547e-17
-9.010636e-18
8.879740e-20
1.190034e-19
9.139562e-20
4.583626e-20
1.972839e-20
8.420047e-21
3.566754e-21
1.519983e-21
6.469351e-22
1.503289e-22
-3.387231e-24
-1.713562e-24
-6.390224e-25
-1.208531e-25
-7.560275e-27
1.003861e-26
1.997455e-26
1.827826e-26
1.546013e-26
7.313071e-27
7.187666e-28
9.874865e-29
5.034526e-29
1.000000e+00
1.000000e+00
1.000000e+00
1.000000e+00
1.000000e+00
1.000000e+00
1.000002e+00
9.999854e-01
9.999965e-01
9.999774e-01
9.962431e-01
9.802257e-01
9.386664e-01
8.558837e-01
7.276312e-01
5.149990e-01
4.023046e-01
2.167648e-01
1.190258e-01
5.373870e-02
2.142186e-02
7.361213e-03
2.241893e-03
7.313069e-04
3.182549e-04
1.414410e-04
6.296618e-05
2.824250e-05
1.319393e-05
5.720510e-06
2.657792e-06
8.979258e-07
1.164844e-07
2.644583e-08
1.976476e-08
1.539095e-08
8.119463e-09
2.020175e-09
2.750639e-10
8.098572e-11
7.761010e-11
3.977153e-11
3.082849e-11
1.958716e-11
9.118950e-12
4.102432e-12
1.520510e-12
2.131381e-13
1.396858e-14
5.255699e-15
3.907505e-15
2.491718e-15
1.249025e-15
3.805527e-16
-7.545613e-18
-3.353001e-17
-2.842025e-17
-1.618266e-17
-7.045527e-18
-3.057081e-18
-1.322627e-18
-5.676089e-19
-2.446408e-19
-9.712787e-20
-2.105762e-20
7.553347e-22
4.948453e-22
3.264511e-22
1.507441e-22
6.625040e-23
2.902928e-23
1.207728e-23
2.862111e-24
-4.039502e-27
-2.422147e-27
1.171806e-26
1.390966e-26
1.110691e-26
5.444576e-27
2.391304e-27
1.000000e+00
1.000000e+00
1.000000e+00
1.000000e+00
1.000000e+00
1.000000e+00
1.000001e+00
9.999939e-01
9.999941e-01
9.999957e-01
9.996697e-01
9.947703e-01
9.764077e-01
9.334600e-01
8.475912e-01
7.249800e-01
5.158352e-01
4.044703e-01
2.192522e-01
1.311934e-01
6.154675e-02
2.466028e-02
8.098165e-03
1.890328e-03
3.272212e-04
1.464583e-04
6.560001e-05
2.337712e-05
9.773996e-06
4.656765e-06
2.623652e-06
2.184626e-06
1.208245e-06
3.115284e-07
1.800565e-08
1.463115e-08
1.184693e-08
8.670596e-09
4.496244e-09
2.162095e-09
8.512174e-10
1.709414e-10
2.745258e-11
1.887414e-11
8.820280e-12
4.211454e-12
3.075427e-12
1.911821e-12
8.018252e-13
1.510450e-13
-3.410995e-15
2.145375e-15
1.095051e-15
6.945607e-16
4.108616e-16
1.635416e-16
4.990655e-17
1.064300e-17
2.028990e-19
-1.550399e-18
-1.317731e-18
-5.450391e-19
-2.482128e-19
-1.677440e-19
-9.788330e-20
-4.737685e-20
-1.903243e-20
-8.001767e-21
-3.521315e-21
-1.268856e-21
-1.307685e-22
1.000392e-23
1.200375e-23
6.687241e-24
1.958991e-24
8.538731e-26
-4.089329e-26
-1.207675e-27
4.399889e-27
1.979646e-27
1.000000e+00
1.000000e+00
1.000000e+00
1.000000e+00
1.000000e+00
1.000000e+00
1.000000e+00
9.999985e-01
9.999948e-01
9.999956e-01
9.999838e-01
9.992717e-01
9.929817e-01
9.723891e-01
9.301731e-01
8.318610e-01
7.228271e-01
5.194918e-01
4.071238e-01
2.223161e-01
1.368575e-01
6.862172e-02
3.017741e-02
1.137532e-02
3.545393e-03
9.856513e-04
4.717634e-04
2.275884e-04
1.204133e-04
4.220614e-05
7.899323e-06
2.183495e-06
1.800333e-06
1.327491e-06
5.905479e-07
1.298546e-07
1.423295e-08
4.201114e-09
3.473471e-09
1.916231e-09
1.670923e-09
1.088946e-09
5.413833e-10
2.611747e-10
1.028629e-10
2.073281e-11
2.985932e-12
1.708126e-12
1.127891e-12
8.442985e-13
4.228621e-13
1.494506e-13
1.853412e-14
3.037734e-16
-4.442619e-17
7.027477e-17
5.173383e-17
-1.090720e-16
-5.889037e-17
-1.000555e-17
-3.733849e-18
-2.655937e-18
-1.064132e-18
-1.891643e-19
-9.511075e-20
-3.686241e-20
-1.371326e-20
-7.728305e-21
-3.598268e-21
-2.519231e-21
-1.634300e-21
-6.797621e-22
-1.063692e-22
9.928622e-24
6.063408e-24
3.599864e-24
1.635724e-24
7.348399e-25
3.157659e-25
1.144695e-25
1.000000e+00
1.000000e+00
1.000000e+00
1.000000e+00
1.000000e+00
1.000000e+00
1.000000e+00
1.000000e+00
9.999973e-01
9.999960e-01
9.999961e-01
9.999428e-01
9.989841e-01
9.901857e-01
9.711476e-01
9.209718e-01
8.231390e-01
7.195540e-01
5.218520e-01
4.078655e-01
2.281404e-01
1.366426e-01
6.952261e-02
3.127301e-02
1.176208e-02
3.392453e-03
5.682208e-04
2.352660e-04
1.235426e-04
9.869671e-05
5.612486e-05
1.579579e-05
1.885274e-06
1.105768e-06
1.011721e-06
6.694047e-07
3.359416e-07
1.557710e-07
5.838622e-08
9.933945e-09
1.008008e-09
1.066336e-09
3.902237e-10
2.604592e-10
2.083598e-10
1.313088e-10
6.576062e-11
2.236455e-11
2.599776e-12
7.477307e-13
3.761905e-13
3.051213e-13
1.913579e-13
8.699856e-14
3.811853e-14
1.656120e-14
7.320774e-15
3.135133e-15
1.353098e-15
6.050351e-16
1.863852e-16
3.599566e-18
-2.649188e-18
-1.931674e-18
-9.019166e-19
-4.320895e-19
-1.919881e-19
-8.474993e-20
-2.525175e-20
-2.352128e-21
-1.640723e-21
-1.282798e-21
-8.059476e-22
-4.082128e-22
-1.755259e-22
-7.501587e-23
-2.724114e-23
-3.673519e-24
3.566714e-25
2.637178e-25
1.000000e+00
1.000000e+00
1.000000e+00
1.000000e+00
1.000000e+00
1.000000e+00
1.000000e+00
1.000000e+00
9.999995e-01
9.999973e-01
9.999977e-01
9.999729e-01
9.999704e-01
9.974929e-01
9.896526e-01
9.671480e-01
9.134682e-01
8.160365e-01
7.166408e-01
5.215209e-01
4.107883e-01
2.332287e-01
1.463687e-01
7.664675e-02
3.645815e-02
1.523456e-02
5.262057e-03
1.358646e-03
3.064795e-04
1.025510e-04
8.281493e-05
6.221929e-05
2.976061e-05
7.864812e-06
9.874199e-07
6.451445e-07
3.142144e-07
1.440710e-07
1.179915e-07
7.615009e-08
3.720361e-08
1.799641e-08
6.626726e-09
1.113899e-09
2.252480e-10
1.241610e-10
6.696002e-11
5.272502e-11
3.199596e-11
1.209274e-11
2.158709e-12
2.758826e-13
1.326045e-13
8.464773e-14
3.691299e-14
7.912838e-15
3.867409e-15
1.650851e-15
1.075532e-15
6.029326e-16
4.763701e-16
2.786796e-16
1.234542e-16
5.314959e-17
2.345555e-17
8.306538e-18
4.785623e-19
-1.420564e-19
-8.433470e-20
-4.654429e-20
-9.821077e-21
-7.963876e-22
-3.486408e-22
-3.423037e-22
-1.588452e-22
-5.478026e-23
-4.881013e-23
-3.191738e-23
-1.556834e-23
-6.588311e-24
1.000000e+00
1.000000e+00
1.000000e+00
1.000000e+00
1.000000e+00
1.000000e+00
1.000000e+00
1.000000e+00
1.000000e+00
9.999986e-01
9.999990e-01
9.999868e-01
9.999884e-01
9.996257e-01
9.969395e-01
9.879463e-01
9.629629e-01
9.062183e-01
8.112465e-01
7.119676e-01
5.210714e-01
4.143787e-01
2.385822e-01
1.469366e-01
7.675188e-02
3.697755e-02
1.605056e-02
5.957118e-03
1.834758e-03
4.481445e-04
9.539050e-05
6.135301e-05
4.711186e-05
3.104952e-05
1.468539e-05
5.613852e-06
2.393122e-06
7.296439e-07
1.331776e-07
5.679353e-08
3.344669e-08
1.757855e-08
1.407711e-08
8.759283e-09
4.403651e-09
1.495949e-09
1.922723e-10
5.220569e-11
2.903109e-11
2.409229e-11
1.530100e-11
7.184741e-12
3.261947e-12
1.492606e-12
6.811787e-13
3.114571e-13
1.396040e-13
6.503854e-14
2.147213e-14
2.067672e-15
4.583582e-16
2.609901e-16
8.468220e-17
3.326316e-17
2.292767e-17
1.745464e-17
1.189162e-17
3.672936e-18
4.154655e-20
-1.007548e-19
-5.075710e-20
-2.761820e-20
-1.310810e-20
-6.021969e-21
-2.775854e-21
-8.230813e-22
-6.398346e-23
-1.310935e-23
-9.034387e-24
-6.165706e-24
1.000000e+00
1.000000e+00
1.000000e+00
1.000000e+00
1.000000e+00
1.000000e+00
1.000000e+00
1.000000e+00
1.000000e+00
9.999994e-01
9.999995e-01
9.999938e-01
9.999921e-01
9.999926e-01
9.993665e-01
9.962100e-01
9.859824e-01
9.586029e-01
8.993016e-01
8.088162e-01
7.067043e-01
5.196700e-01
4.154611e-01
2.429615e-01
1.591295e-01
8.341771e-02
4.029674e-02
1.768631e-02
6.922428e-03
2.347842e-03
6.672333e-04
1.634967e-04
5.938102e-05
3.699394e-05
2.326904e-05
1.068717e-05
4.179195e-06
2.642981e-06
1.491782e-06
7.432094e-07
3.022091e-07
7.216666e-08
1.284742e-08
8.005416e-09
4.474330e-09
3.625493e-09
2.243017e-09
8.557752e-10
1.603609e-10
2.009543e-11
1.408615e-11
5.612544e-12
1.688196e-12
1.282935e-12
6.555103e-13
3.219648e-13
1.412808e-13
6.747354e-14
5.266136e-14
3.151120e-14
1.430569e-14
6.415521e-15
2.964159e-15
1.135030e-15
1.309798e-16
4.488519e-18
1.133439e-17
9.434901e-18
5.596002e-18
2.484562e-18
1.024402e-18
4.351243e-19
1.431429e-19
6.765457e-21
-3.365061e-21
-2.760284e-21
-1.509408e-21
-6.679655e-22
-3.024138e-22
-1.182437e-22
1.000000e+00
1.000000e+00
1.000000e+00
1.000000e+00
1.000000e+00
1.000000e+00
1.000000e+00
1.000000e+00
1.000000e+00
9.999998e-01
9.999998e-01
9.999980e-01
9.999943e-01
9.999957e-01
9.999338e-01
9.991098e-01
9.953202e-01
9.837810e-01
9.547008e-01
8.885113e-01
8.115327e-01
7.049265e-01
5.184805e-01
4.165146e-01
2.444739e-01
1.649203e-01
8.852250e-02
4.343995e-02
1.935060e-02
7.757292e-03
2.742493e-03
8.284907e-04
2.251954e-04
7.566464e-05
4.251971e-05
2.825749e-05
1.304467e-05
3.494556e-06
1.505894e-06
7.393414e-07
5.845402e-07
3.747372e-07
1.974536e-07
7.059036e-08
1.072697e-08
3.592064e-09
2.132393e-09
1.678291e-09
1.058981e-09
5.058719e-10
2.316383e-10
1.066243e-10
4.983384e-11
2.278139e-11
1.035985e-11
5.088229e-12
1.718961e-12
1.922061e-13
5.290081e-14
1.341439e-14
1.384916e-14
4.645694e-15
2.731657e-15
2.211997e-15
1.583693e-15
5.257531e-16
4.772012e-17
9.662891e-18
5.286457e-18
1.891595e-18
6.171101e-19
4.091575e-19
3.143453e-19
1.854853e-19
8.420413e-20
3.453812e-20
1.423444e-20
5.964214e-21
2.522454e-21
9.838357e-22
1.000000e+00
1.000000e+00
1.000000e+00
1.000000e+00
1.000000e+00
1.000000e+00
1.000000e+00
1.000000e+00
1.000000e+00
9.999999e-01
9.999999e-01
9.999998e-01
9.999969e-01
9.999958e-01
9.999980e-01
9.998336e-01
9.989885e-01
9.937517e-01
9.845999e-01
9.402951e-01
8.937589e-01
7.989788e-01
7.032584e-01
5.214393e-01
4.170846e-01
2.478128e-01
1.704873e-01
9.367643e-02
4.708418e-02
2.144848e-02
8.832574e-03
3.229985e-03
1.018150e-03
2.734094e-04
7.492530e-05
3.908866e-05
3.065632e-05
1.947672e-05
9.213777e-06
2.990560e-06
5.986729e-07
3.767769e-07
1.986236e-07
1.628849e-07
1.030171e-07
4.103320e-08
8.934444e-09
1.307155e-09
1.008725e-09
3.243702e-10
1.373668e-10
8.582844e-11
3.139982e-11
2.033021e-11
1.030817e-11
5.056336e-12
3.980074e-12
2.420904e-12
1.127498e-12
5.100325e-13
2.311519e-13
9.168587e-14
1.306207e-14
1.905249e-15
1.550500e-15
1.237774e-15
7.558144e-16
3.462354e-16
1.510966e-16
6.912419e-17
2.520485e-17
3.529061e-18
1.546258e-19
1.324713e-19
2.652744e-20
1.592566e-20
-6.649224e-21
-3.878693e-21
-1.732947e-21
-6.178766e-22
1.000000e+00
1.000000e+00
1.000000e+00
1.000000e+00
1.000000e+00
1.000000e+00
1.000000e+00
1.000000e+00
1.000000e+00
1.000000e+00
9.999999e-01
9.999999e-01
9.999991e-01
9.999967e-01
9.999972e-01
9.999274e-01
9.999805e-01
9.969220e-01
9.968265e-01
9.755380e-01
9.436294e-01
8.871715e-01
7.906810e-01
7.010243e-01
5.218937e-01
4.173726e-01
2.502976e-01
1.743872e-01
9.763958e-02
5.032418e-02
2.348830e-02
9.959313e-03
3.813542e-03
1.290677e-03
3.711191e-04
8.398509e-05
3.079817e-05
1.983406e-05
1.420144e-05
9.493783e-06
5.054909e-06
1.920122e-06
5.630112e-07
1.618502e-07
1.021807e-07
7.884197e-08
5.130559e-08
2.531365e-08
1.161338e-08
5.476816e-09
2.579984e-09
1.220857e-09
5.758567e-10
2.743175e-10
9.568876e-11
1.392839e-11
2.683066e-12
1.640809e-12
6.786286e-13
5.165225e-13
2.269246e-13
1.754081e-13
1.232658e-13
4.530785e-14
7.059903e-15
6.033391e-16
5.888207e-16
1.061971e-16
1.395268e-16
6.858706e-17
5.346242e-17
3.330987e-17
1.528978e-17
6.773591e-18
3.104402e-18
1.362879e-18
6.022052e-19
2.667505e-19
1.198861e-19
5.179715e-20
1.000000e+00
1.000000e+00
1.000000e+00
1.000000e+00
1.000000e+00
1.000000e+00
1.000000e+00
1.000000e+00
1.000000e+00
1.000000e+00
1.000000e+00
9.999999e-01
9.999999e-01
9.999983e-01
9.999984e-01
9.999675e-01
1.000008e+00
9.986408e-01
9.986180e-01
9.923974e-01
9.749363e-01
9.412375e-01
8.823236e-01
7.836487e-01
6.994237e-01
5.244244e-01
4.205986e-01
2.545997e-01
1.790360e-01
1.014539e-01
5.355979e-02
2.548952e-02
1.100233e-02
4.334360e-03
1.564457e-03
5.122003e-04
1.499711e-04
4.627511e-05
1.898024e-05
1.152537e-05
7.694073e-06
4.208533e-06
2.343688e-06
1.169689e-06
4.352706e-07
8.206179e-08
5.007927e-08
2.478219e-08
1.002417e-08
5.389288e-09
2.498629e-09
1.251002e-09
5.469178e-10
2.763679e-10
2.219057e-10
1.372711e-10
6.519373e-11
3.045856e-11
1.432844e-11
5.752772e-12
9.654512e-13
1.809623e-13
1.250681e-13
9.403162e-14
6.003625e-14
2.885821e-14
1.307764e-14
6.145415e-15
2.268513e-15
3.822777e-16
2.740755e-17
2.915861e-17
9.803965e-18
5.891605e-18
9.680701e-19
5.941553e-19
3.328301e-19
1.390975e-19
9.838744e-20
5.252413e-20
1.000000e+00
1.000000e+00
1.000000e+00
1.000000e+00
1.000000e+00
1.000000e+00
1.000000e+00
1.000000e+00
1.000000e+00
1.000000e+00
1.000000e+00
1.000000e+00
1.000000e+00
9.999992e-01
9.999993e-01
9.999851e-01
9.999970e-01
9.993792e-01
9.993650e-01
9.979660e-01
9.905422e-01
9.730825e-01
9.372845e-01
8.797103e-01
7.715161e-01
6.918113e-01
5.232750e-01
4.222024e-01
2.585958e-01
1.840401e-01
1.048680e-01
5.702843e-02
2.784079e-02
1.220420e-02
4.827912e-03
1.739296e-03
5.747346e-04
1.820673e-04
6.029952e-05
2.346669e-05
1.232357e-05
7.615546e-06
3.643153e-06
1.705777e-06
1.115382e-06
6.974380e-07
3.424518e-07
1.730247e-07
8.691326e-08
4.296809e-08
2.080960e-08
1.070865e-08
4.280877e-09
9.541945e-10
1.682747e-10
1.303572e-10
5.663451e-11
2.492965e-11
1.385208e-11
1.118690e-11
7.398017e-12
3.088482e-12
6.024188e-13
7.793109e-14
3.723440e-14
2.075777e-14
1.181403e-14
5.872599e-15
4.717073e-15
2.997696e-15
1.429660e-15
6.408968e-16
2.864524e-16
1.326239e-16
6.124237e-17
2.783052e-17
1.255783e-17
5.949754e-18
1.879917e-18
2.694838e-19
1.000000e+00
1.000000e+00
1.000000e+00
1.000000e+00
1.000000e+00
1.000000e+00
1.000000e+00
1.000000e+00
1.000000e+00
1.000000e+00
1.000000e+00
1.000000e+00
1.000000e+00
9.999996e-01
9.999996e-01
9.999930e-01
9.999980e-01
9.997683e-01
9.995487e-01
9.994567e-01
9.969857e-01
9.892717e-01
9.704734e-01
9.338176e-01
8.783018e-01
7.662109e-01
6.869388e-01
5.220057e-01
4.233263e-01
2.620036e-01
1.899869e-01
1.068042e-01
5.993587e-02
3.036196e-02
1.379240e-02
5.609205e-03
2.044555e-03
6.765961e-04
2.129056e-04
7.077578e-05
2.663657e-05
1.328770e-05
9.567603e-06
4.447820e-06
1.438593e-06
7.181672e-07
3.117552e-07
1.510901e-07
8.858483e-08
3.828931e-08
2.076311e-08
1.071092e-08
8.611081e-09
5.485826e-09
2.776654e-09
1.309069e-09
6.389741e-10
2.696366e-10
5.418948e-11
9.607867e-12
7.149689e-12
5.839470e-12
3.730657e-12
1.851304e-12
8.523558e-13
4.041076e-13
1.520389e-13
2.641191e-14
3.481311e-15
2.571601e-15
1.401168e-15
5.136597e-16
1.819581e-16
1.219463e-16
5.600879e-17
2.368679e-17
9.334893e-18
6.028965e-18
4.887567e-18
2.514215e-18
1.000000e+00
1.000000e+00
1.000000e+00
1.000000e+00
1.000000e+00
1.000000e+00
1.000000e+00
1.000000e+00