# vtk DataFile Version 3.0
MUSCL
ASCII
DATASET STRUCTURED_POINTS
DIMENSIONS 80 80 1
ORIGIN 0 0 0
SPACING 0.0125 0.0125 1
POINT_DATA 6400
SCALARS Temperature double 1
LOOKUP_TABLE default
0.000000e+00
-6.739994e-01
-1.939482e-01
-2.456571e-02
-3.500262e-04
4.719606e-05
3.639188e-06
-1.078191e-07
-1.733689e-07
-9.795312e-08
-4.797468e-08
-2.100640e-08
-8.354450e-09
-3.204427e-09
-1.213478e-09
-9.368928e-11
1.348900e-11
3.780708e-12
1.248203e-12
5.957016e-14
-2.210006e-13
-2.033186e-13
-9.749829e-14
-3.314585e-14
-6.019266e-15
1.680164e-17
6.438739e-16
5.475533e-16
2.524340e-16
1.049968e-16
4.200045e-17
1.332891e-17
1.630415e-18
-8.859714e-20
-1.151733e-20
-3.052940e-21
6.121257e-21
4.337167e-21
1.455502e-21
3.880552e-22
1.051364e-22
2.067889e-23
1.801172e-24
1.200449e-26
-1.122263e-26
-5.787535e-27
-2.507065e-27
-1.147917e-27
-5.245372e-28
-2.313211e-28
-9.867408e-29
-4.172187e-29
-1.780345e-29
-8.473434e-30
-2.556766e-30
-1.029588e-32
3.782312e-33
7.560239e-33
5.165906e-33
2.520909e-33
1.411141e-33
9.063371e-34
6.501962e-34
4.046541e-34
8.803106e-35
1.452082e-36
-1.369057e-36
-7.694888e-37
-3.462014e-37
-1.688106e-37
-8.410469e-38
-4.155837e-38
-2.053951e-38
-1.027995e-38
-5.191065e-39
-2.599698e-39
-1.266780e-39
-5.939392e-40
-2.610812e-40
-1.105071e-40
1.326001e+00
6.739994e-01
1.939482e-01
2.456571e-02
3.500262e-04
-4.719606e-05
-3.639188e-06
1.078191e-07
1.733689e-07
9.795312e-08
4.797468e-08
2.100640e-08
8.354450e-09
3.204427e-09
1.213478e-09
9.368928e-11
-1.348900e-11
-3.780708e-12
-1.248203e-12
-5.957016e-14
2.210006e-13
2.033186e-13
9.749829e-14
3.314585e-14
6.019266e-15
-1.680164e-17
-6.438739e-16
-5.475533e-16
-2.524340e-16
-1.049968e-16
-4.200045e-17
-1.332891e-17
-1.630415e-18
8.859714e-20
1.151733e-20
3.052940e-21
-6.121257e-21
-4.337167e-21
-1.455502e-21
-3.880552e-22
-1.051364e-22
-2.067889e-23
-1.801172e-24
-1.200449e-26
1.122263e-26
5.787535e-27
2.507065e-27
1.147917e-27
5.245372e-28
2.313211e-28
9.867408e-29
4.172187e-29
1.780345e-29
8.473434e-30
2.556766e-30
1.029588e-32
-3.782312e-33
-7.560239e-33
-5.165906e-33
-2.520909e-33
-1.411141e-33
-9.063371e-34
-6.501962e-34
-4.046541e-34
-8.803106e-35
-1.452082e-36
1.369057e-36
7.694888e-37
3.462014e-37
1.688106e-37
8.410469e-38
4.155837e-38
2.053951e-38
1.027995e-38
5.191065e-39
2.599698e-39
1.266780e-39
5.939392e-40
2.610812e-40
1.105071e-40
1.041912e+00
9.580885e-01
5.985607e-01
2.397433e-01
5.877462e-02
3.917723e-03
-1.167001e-05
-4.853937e-05
-2.062680e-05
-8.770277e-06
-4.071465e-06
-1.846393e-06
-7.738641e-07
-2.009889e-07
1.313997e-09
1.141919e-09
8.826297e-10
2.810541e-10
1.654690e-11
-1.594686e-12
-7.586108e-13
-6.386482e-14
9.509886e-14
7.135127e-14
3.605817e-14
1.289082e-14
3.915599e-15
1.166940e-15
4.275271e-17
-1.058168e-16
-6.008529e-17
-3.352709e-17
-1.754583e-17
-6.523480e-18
-1.619750e-18
8.992246e-21
6.630996e-21
4.327334e-21
1.186821e-21
-1.644046e-22
-1.287209e-22
-4.922274e-23
-1.700474e-23
-4.795490e-24
-1.445567e-24
-5.661038e-25
-2.510512e-25
-1.135844e-25
-5.013097e-26
-2.148179e-26
-9.061257e-27
-3.818965e-27
-1.769790e-27
-4.340902e-28
7.869117e-30
4.389568e-30
3.399874e-30
2.163527e-30
1.289203e-30
6.701770e-31
3.229667e-31
1.666313e-31
7.938872e-32
1.587938e-32
-1.442680e-34
-2.425895e-34
-1.751467e-34
-8.777526e-35
-4.208779e-35
-1.951549e-35
-8.897790e-36
-4.030008e-36
-1.830380e-36
-8.395067e-37
-3.891199e-37
-1.730655e-37
-5.928759e-38
-2.321879e-38
-2.154520e-39
1.918656e-40
9.992278e-01
1.000772e+00
8.861251e-01
5.933274e-01
2.706893e-01
8.405380e-02
1.572126e-02
1.215388e-03
4.877178e-04
2.142664e-04
7.735277e-05
9.531415e-06
-1.030227e-06
-7.298840e-07
-4.042065e-07
-1.437843e-07
-1.267101e-08
2.119880e-10
3.368018e-10
1.658394e-10
3.204601e-11
-8.521092e-13
-1.661345e-13
-1.026870e-13
-6.992252e-14
-3.307062e-14
-2.765965e-15
1.907404e-15
1.992816e-15
1.049024e-15
1.277903e-16
-3.898389e-17
-2.375767e-17
-1.342300e-17
-6.865655e-18
-3.100689e-18
-1.255874e-18
-3.584815e-19
-6.926460e-21
1.752465e-21
1.597764e-21
8.633004e-22
4.369398e-22
2.111686e-22
1.002939e-22
4.735638e-23
2.210710e-23
1.009753e-23
4.491873e-24
1.946923e-24
8.527759e-25
3.497088e-25
7.059971e-26
8.651930e-28
-8.952723e-28
-5.848288e-28
-2.783527e-28
-1.343656e-28
-6.504567e-29
-3.283174e-29
-1.671475e-29
-4.835935e-30
9.620576e-32
6.583708e-32
4.762085e-32
2.550426e-33
3.566662e-33
5.078938e-33
3.098454e-33
1.465317e-33
6.754699e-34
3.048511e-34
1.332072e-34
4.606153e-35
8.073171e-36
-2.149401e-37
-2.931952e-37
-1.048855e-37
-4.948588e-38
-1.937908e-38
9.999094e-01
1.000091e+00
9.863557e-01
8.524440e-01
5.809165e-01
2.961516e-01
9.859296e-02
2.186183e-02
6.950414e-04
2.018280e-04
1.437027e-04
9.365027e-05
4.161818e-05
7.263319e-06
-4.580783e-07
-2.946194e-07
-1.854231e-07
-4.924512e-08
-8.112512e-10
1.924266e-10
1.715951e-10
8.571153e-11
3.952687e-11
2.049855e-11
6.836136e-12
-9.209917e-14
-6.341327e-14
-1.933982e-14
9.607614e-16
1.098832e-15
1.067600e-15
6.341418e-16
2.797620e-16
1.102217e-16
3.650170e-17
9.994549e-18
1.206812e-18
-4.886472e-19
-6.181969e-19
-3.436097e-19
-1.658891e-19
-8.262474e-20
-4.095529e-20
-1.991948e-20
-9.446834e-21
-4.361602e-21
-1.959254e-21
-8.606318e-22
-3.725302e-22
-1.598149e-22
-5.656460e-23
-9.362771e-24
1.778669e-25
1.517839e-25
8.757502e-26
3.841569e-26
1.662691e-26
7.148654e-27
2.961322e-27
8.199123e-28
-1.734203e-29
-1.565781e-29
-1.216059e-29
-5.178526e-30
-1.509905e-31
3.671121e-32
2.701748e-32
-8.467710e-32
-1.107342e-31
-6.516135e-32
-2.027475e-32
-4.652816e-33
1.625629e-34
2.613124e-34
1.017312e-34
4.651032e-35
1.792542e-35
6.872221e-36
2.782661e-36
1.009577e-36
9.999706e-01
1.000029e+00
1.000058e+00
9.656186e-01
8.295998e-01
5.645323e-01
3.364936e-01
1.267303e-01
3.483726e-02
2.637052e-03
-3.966370e-05
6.758098e-05
6.416549e-05
4.640635e-05
1.962034e-05
2.923731e-06
-2.018799e-07
-1.684456e-07
-9.742731e-08
-4.319437e-08
-1.945644e-08
-8.932116e-09
-3.252234e-09
-1.507081e-10
1.686470e-11
1.410020e-11
4.932163e-12
9.658596e-14
-8.610235e-14
-2.118496e-14
-8.364006e-15
-3.614171e-15
-1.602421e-15
-7.923164e-16
-2.269113e-16
5.636773e-18
4.160845e-18
9.039318e-19
-3.838759e-19
1.214465e-21
1.004900e-19
-2.168801e-20
-3.097992e-20
-2.003896e-20
4.818917e-21
-3.136773e-21
-8.675166e-23
5.864396e-22
1.781638e-22
-1.053560e-24
-2.878452e-23
-2.811549e-23
-2.443424e-23
-1.179945e-23
-5.308740e-24
-2.353222e-24
-9.097364e-25
-1.885116e-25
1.204203e-28
1.876352e-27
1.381393e-27
4.795259e-28
7.307339e-29
-2.593859e-30
-6.058301e-30
-5.488618e-30
-5.471017e-31
4.273949e-31
7.911049e-32
-7.841908e-32
-7.396713e-32
-4.357600e-32
-2.236319e-32
-1.019322e-32
-4.317246e-33
-1.762763e-33
-7.018788e-34
-2.791678e-34
-9.509460e-35
-3.502629e-35
9.999946e-01
1.000005e+00
1.000022e+00
9.983937e-01
9.485034e-01
8.111229e-01
5.426648e-01
3.576949e-01
1.479994e-01
5.014692e-02
9.767687e-03
3.339296e-04
-2.971705e-06
4.181069e-05
3.512056e-05
2.260250e-05
1.122626e-05
4.874703e-06
2.093889e-06
8.380804e-07
1.599659e-07
-1.007963e-08
-7.135389e-09
-4.844896e-09
-1.333605e-09
-1.296166e-11
1.431933e-11
1.099443e-11
4.811680e-12
2.133461e-12
9.451989e-13
4.156838e-13
1.496473e-13
1.890709e-14
-5.486401e-17
-4.758340e-16
-2.620790e-16
-1.146217e-16
-4.937089e-17
-2.171726e-17
-9.489806e-18
-4.292766e-18
-1.976350e-18
-9.444980e-19
-4.348075e-19
-2.041747e-19
-9.581159e-20
-4.326558e-20
-1.865832e-20
-6.944010e-21
-1.627422e-21
-6.373918e-23
-1.405187e-23
-1.025463e-23
-4.118685e-24
-2.205815e-24
-1.533839e-24
-9.962916e-25
-5.343138e-25
-1.894220e-25
-3.201146e-26
1.342606e-27
5.143347e-28
2.582593e-28
6.693846e-29
-4.852038e-30
-4.698161e-30
-1.218108e-29
-6.041717e-30
1.139711e-32
2.304154e-31
1.347821e-31
6.493406e-32
2.683473e-32
8.721039e-33
1.989321e-33
4.975663e-35
-2.496527e-34
-1.905836e-34
-7.485044e-35
9.999999e-01
1.000000e+00
1.000006e+00
1.000116e+00
9.919311e-01
9.349089e-01
7.950223e-01
5.168915e-01
3.730520e-01
1.556494e-01
5.851958e-02
1.602678e-02
2.172224e-03
3.569801e-05
3.097507e-05
2.094792e-05
1.137115e-05
4.544136e-06
2.129846e-06
1.223920e-06
8.695558e-07
3.599294e-07
4.953324e-08
-7.229140e-09
-4.481175e-09
-2.669182e-09
-1.176890e-09
-5.057181e-10
-2.142457e-10
-9.245817e-11
-3.434024e-11
-4.218798e-12
3.717717e-13
1.800834e-13
9.001265e-14
3.722854e-14
1.545863e-14
6.412835e-15
2.675313e-15
1.127643e-15
4.807729e-16
2.086375e-16
8.467864e-17
2.094268e-17
2.489471e-18
1.175607e-18
6.191998e-19
9.847806e-20
-1.687427e-20
-1.280220e-20
-6.570756e-21
-3.065677e-21
-1.392508e-21
-5.583546e-22
-1.526030e-22
-4.126465e-24
4.808041e-26
-2.297305e-25
-4.727331e-25
-4.052058e-25
-2.413177e-25
-1.129575e-25
-4.028783e-26
-5.309419e-27
1.089808e-29
1.085016e-28
5.221283e-29
4.018495e-30
-1.517220e-29
-2.448858e-29
-1.994314e-29
-1.043329e-29
-5.373033e-30
-2.638912e-30
-1.134009e-30
-2.693790e-31
-3.453191e-33
-1.589839e-34
5.228772e-34
2.886221e-34
9.999997e-01
1.000000e+00
1.000000e+00
1.000028e+00
1.000023e+00
9.847237e-01
9.217054e-01
7.794480e-01
5.213051e-01
3.784828e-01
1.650443e-01
6.667483e-02
2.053951e-02
4.218221e-03
3.818042e-04
8.210625e-05
4.722795e-05
2.596449e-05
9.876021e-06
2.166739e-06
8.807067e-07
6.952595e-07
4.330847e-07
2.148892e-07
9.036160e-08
3.705793e-08
1.491564e-08
6.259775e-09
1.737870e-09
-6.023731e-11
-5.881532e-11
-3.964869e-11
-1.949381e-11
-8.458758e-12
-3.638163e-12
-1.566407e-12
-6.772047e-13
-2.941953e-13
-1.276738e-13
-5.594606e-14
-1.596720e-14
-2.245946e-16
1.012062e-16
7.649016e-17
2.634497e-17
1.392480e-18
6.010263e-19
5.297027e-19
3.580974e-19
1.233845e-19
2.981641e-20
4.005868e-21
-7.330594e-22
-9.467276e-22
-6.490247e-22
-3.411066e-22
-1.415147e-22
-4.196494e-23
-3.627666e-24
1.164207e-25
-1.502903e-25
-8.781157e-26
-7.051607e-26
-4.183548e-26
-1.966258e-26
-7.599506e-27
-1.421326e-27
-1.598168e-29
-1.354154e-29
-1.449703e-29
-1.531170e-29
-9.247075e-30
-2.774460e-30
-2.031836e-30
-1.106502e-30
-1.036462e-30
-6.493162e-31
-2.722201e-31
-1.054731e-31
-3.461081e-32
9.999997e-01
1.000000e+00
1.000000e+00
1.000012e+00
1.000026e+00
9.988077e-01
9.785596e-01
9.078759e-01
7.697882e-01
5.221750e-01
3.810247e-01
1.771743e-01
7.576095e-02
2.543987e-02
5.919228e-03
4.472945e-04
5.273912e-05
3.041550e-05
2.506436e-05
1.399251e-05
4.089444e-06
6.778354e-07
4.026630e-07
2.188463e-07
8.824013e-08
3.674399e-08
1.509664e-08
6.176228e-09
4.862656e-09
2.688047e-09
1.127786e-09
4.769970e-10
2.019813e-10
8.482205e-11
3.518157e-11
1.431843e-11
6.002383e-12
1.652247e-12
-6.804179e-14
-6.657472e-14
-5.071909e-14
-2.526122e-14
-4.375281e-15
4.250922e-17
8.597372e-17
4.468476e-17
7.451804e-18
-1.828098e-19
2.842702e-19
1.244383e-19
1.548702e-20
-6.640306e-21
-3.774113e-21
-6.672332e-22
9.181261e-22
5.024363e-22
-1.265246e-22
-1.071553e-22
-6.034313e-23
-2.605466e-23
-9.011753e-24
-1.652092e-24
-4.007765e-26
-3.791312e-26
-1.839395e-26
-1.208826e-26
-7.998823e-27
-4.274580e-27
-1.992634e-27
-9.647701e-28
-4.798466e-28
-2.422400e-28
-1.232857e-28
-4.826350e-29
-6.207373e-30
-2.218083e-31
-5.826097e-31
-6.869523e-32
-5.354103e-32
-1.779921e-32
9.999999e-01
1.000000e+00
1.000000e+00
1.000002e+00
1.000013e+00
9.999924e-01
9.971457e-01
9.709435e-01
8.969243e-01
7.615787e-01
5.236235e-01
3.740931e-01
1.875474e-01
8.586133e-02
3.199694e-02
8.893687e-03
1.240625e-03
4.048122e-05
2.529406e-05
2.196172e-05
1.616304e-05
6.951170e-06
2.102936e-06
7.591484e-07
4.516336e-07
2.507285e-07
1.101518e-07
2.563684e-08
4.469224e-09
2.315703e-09
8.849326e-10
3.420951e-10
1.659673e-10
5.496985e-11
2.896928e-11
7.083754e-12
6.013657e-12
4.592164e-12
2.486044e-12
5.943893e-13
-3.466346e-14
-3.981818e-14
-2.916739e-14
-1.197889e-14
-1.423036e-15
9.598750e-17
5.781555e-17
2.880616e-17
1.293987e-17
6.144682e-18
1.433039e-18
-4.774631e-21
-8.745023e-21
-5.242236e-21
-2.610111e-22
1.129797e-21
1.182914e-21
6.983101e-22
1.742860e-22
-2.406788e-23
-1.853563e-23
-1.056085e-23
-4.500831e-24
-1.537129e-24
-3.276218e-25
-6.453946e-27
-7.343503e-27
-4.257421e-27
-1.153485e-27
-5.650678e-28
-3.974979e-28
-1.165718e-28
-1.162374e-28
-8.823786e-29
-6.040020e-29
-3.061240e-29
-1.483526e-29
-6.975375e-30
-3.028334e-30
-1.235501e-30
1.000000e+00
1.000000e+00
1.000000e+00
9.999999e-01
1.000006e+00
1.000006e+00
9.999747e-01
9.941821e-01
9.638621e-01
8.861526e-01
7.588740e-01
5.119115e-01
3.893693e-01
1.921695e-01
9.241952e-02
3.719815e-02
1.167469e-02
2.341603e-03
6.188714e-05
1.360605e-05
1.687621e-05
1.402526e-05
6.925410e-06
2.043091e-06
4.341698e-07
2.527785e-07
2.036250e-07
1.329990e-07
6.721381e-08
3.100396e-08
1.435117e-08
6.687348e-09
3.116901e-09
1.444286e-09
6.894916e-10
2.322604e-10
2.890038e-11
5.190585e-12
3.340505e-12
2.332943e-12
1.229403e-12
2.753033e-13
-2.183740e-14
-2.348359e-14
-1.559017e-14
-7.407588e-15
-3.304343e-15
-8.954922e-16
2.977592e-18
6.303850e-18
5.299752e-18
2.813749e-18
1.254838e-18
4.613477e-19
2.390848e-20
-4.544197e-21
-1.054207e-21
5.302245e-22
6.044372e-22
3.988689e-22
1.825649e-22
5.287951e-23
-4.042320e-24
-3.018702e-24
-1.714167e-24
-7.596267e-25
-2.972430e-25
-1.194802e-25
-4.943028e-26
-2.059734e-26
-8.584383e-27
-3.556741e-27
-9.164453e-28
-8.271519e-29
-5.694982e-29
-2.663091e-29
-1.033184e-29
-6.404664e-30
-2.879645e-30
-1.745634e-30
1.000000e+00
1.000000e+00
1.000000e+00
1.000000e+00
1.000002e+00
1.000004e+00
1.000008e+00
9.997567e-01
9.914739e-01
9.548683e-01
8.817652e-01
7.454283e-01
5.159572e-01
3.938592e-01
1.986913e-01
9.892704e-02
4.198925e-02
1.453869e-02
3.630310e-03
3.478335e-04
2.251465e-05
1.668749e-05
1.382604e-05
9.304780e-06
4.201387e-06
1.026631e-06
2.223291e-07
9.811433e-08
4.960118e-08
2.607735e-08
1.378184e-08
4.993369e-09
3.057412e-09
1.419841e-09
6.971775e-10
5.623955e-10
3.135362e-10
8.503843e-11
2.877500e-12
1.947511e-12
1.542985e-12
1.154084e-12
5.994153e-13
2.498749e-13
8.045609e-14
2.815826e-15
-3.359241e-15
-2.930936e-15
-1.650345e-15
-7.176679e-16
-3.204104e-16
-8.654285e-17
1.045742e-18
6.561898e-19
5.479812e-19
2.635108e-19
7.510861e-20
8.192010e-23
3.703642e-22
2.448348e-22
1.828217e-22
1.460604e-22
8.685860e-23
4.015617e-23
1.874055e-23
8.798460e-24
4.157523e-24
1.954670e-24
9.420169e-25
2.695294e-25
-4.152791e-27
-4.797713e-27
-3.347889e-27
-1.679116e-27
-7.244539e-28
-3.385668e-28
-1.634026e-28
-6.642457e-29
-1.338800e-29
-1.257332e-30
1.000000e+00
1.000000e+00
1.000000e+00
1.000000e+00
1.000000e+00
1.000001e+00
1.000006e+00
9.999128e-01
9.998865e-01
9.863533e-01
9.508420e-01
8.715432e-01
7.384631e-01
5.161884e-01
3.972472e-01
2.052312e-01
1.052210e-01
4.640077e-02
1.746079e-02
5.018348e-03
5.995835e-04
-1.522637e-05
7.569093e-06
9.008876e-06
7.843952e-06
5.171844e-06
2.623184e-06
1.237232e-06
5.982223e-07
2.792372e-07
1.320259e-07
6.390860e-08
3.165814e-08
1.139869e-08
2.192951e-09
5.202276e-10
4.570931e-10
3.352769e-10
1.542425e-10
3.361855e-11
5.166440e-13
1.016112e-12
2.402025e-13
1.889535e-13
1.631836e-13
1.004718e-13
4.394250e-14
1.736416e-14
5.129935e-15
-1.953163e-16
-3.302868e-16
-2.813537e-16
-1.640784e-16
-4.795325e-17
2.194165e-19
3.125537e-19
2.586715e-19
1.506600e-19
7.096087e-20
1.920869e-20
6.321494e-22
2.180354e-24
-2.847385e-23
4.957418e-24
1.237882e-23
4.511030e-24
1.676736e-24
7.875028e-25
8.058625e-25
7.304312e-25
4.658421e-25
2.196867e-25
9.879974e-26
4.199916e-26
1.335881e-26
2.000510e-27
-1.221784e-28
-1.396104e-28
-9.215012e-29
-4.286649e-29
1.000000e+00
1.000000e+00
1.000000e+00
1.000000e+00
1.000000e+00
1.000000e+00
1.000003e+00
9.999630e-01
9.999636e-01
9.977047e-01
9.838596e-01
9.446853e-01
8.634605e-01
7.326287e-01
5.157887e-01
4.002472e-01
2.116224e-01
1.117374e-01
5.057387e-02
2.040853e-02
7.042207e-03
1.740664e-03
2.199106e-04
7.897991e-06
6.272731e-06
4.335298e-06
1.263322e-07
5.843863e-07
4.566217e-07
4.835252e-08
7.669756e-08
6.045428e-08
3.181052e-08
2.629893e-08
1.582559e-08
5.028286e-09
4.302895e-10
3.155000e-10
2.488028e-10
1.680712e-10
8.368106e-11
3.816118e-11
1.403323e-11
1.989467e-12
2.056482e-13
9.189659e-14
2.946057e-14
1.590661e-14
1.143823e-14
6.840304e-15
2.702514e-15
3.953291e-16
-1.676007e-16
-1.326144e-16
-7.488085e-17
-3.305681e-17
-9.231092e-18
1.478417e-19
8.736940e-20
6.781153e-20
3.793834e-20
1.657834e-20
7.189860e-21
3.118917e-21
1.351197e-21
5.937337e-22
2.483474e-22
6.987969e-23
3.222935e-24
-5.093879e-25
1.555650e-25
-1.866413e-26
8.297046e-27
3.787650e-26
3.388124e-26
2.040768e-26
8.857409e-27
2.091421e-27
-9.778732e-29
-5.857707e-29
1.000000e+00
1.000000e+00
1.000000e+00
1.000000e+00
1.000000e+00
1.000000e+00
1.000002e+00
9.999841e-01
9.999870e-01
9.999103e-01
9.963036e-01
9.802233e-01
9.386263e-01
8.558504e-01
7.276239e-01
5.150076e-01
4.023077e-01
2.167496e-01
1.189939e-01
5.370597e-02
2.139514e-02
7.342346e-03
2.225755e-03
7.043245e-04
3.144010e-04
1.390434e-04
6.261034e-05
2.806211e-05
1.261698e-05
5.811609e-06
2.689827e-06
8.611936e-07
1.135669e-07
2.839465e-08
2.086424e-08
1.607893e-08
8.395908e-09
2.187358e-09
2.421388e-10
1.706107e-10
8.468834e-11
3.753162e-11
2.948688e-11
1.847041e-11
8.625815e-12
3.833155e-12
1.392638e-12
1.856545e-13
-3.370690e-15
5.048499e-15
3.890486e-15
2.639105e-15
1.431597e-15
4.775634e-16
2.004502e-17
-3.229740e-17
-2.795945e-17
-1.596832e-17
-6.840967e-18
-2.911316e-18
-1.229066e-18
-5.197263e-19
-2.208507e-19
-9.529151e-20
-4.096670e-20
-8.600998e-21
6.555601e-23
2.045429e-22
1.327711e-22
5.738576e-23
2.501588e-23
1.045270e-23
2.426054e-24
4.035937e-26
1.353140e-26
2.229291e-26
1.571024e-26
8.662745e-27
4.073655e-27
1.438823e-27
1.000000e+00
1.000000e+00
1.000000e+00
1.000000e+00
1.000000e+00
1.000000e+00
1.000001e+00
9.999934e-01
9.999915e-01
9.999989e-01
9.996610e-01
9.947468e-01
9.763542e-01
9.334006e-01
8.475510e-01
7.249706e-01
5.158431e-01
4.044699e-01
2.192272e-01
1.311565e-01
6.151125e-02
2.463015e-02
8.068740e-03
1.887507e-03
3.555502e-04
1.223858e-04
5.337191e-05
2.551339e-05
1.216476e-05
5.294383e-06
2.719360e-06
2.194353e-06
1.212605e-06
3.100591e-07
2.016295e-08
1.547277e-08
1.215571e-08
8.835771e-09
4.464482e-09
2.178565e-09
8.780710e-10
1.633223e-10
2.164724e-11
1.097909e-11
5.808820e-12
3.640265e-12
2.852982e-12
1.791818e-12
7.968494e-13
2.111524e-13
5.132385e-15
2.096781e-15
1.345623e-15
9.337134e-16
5.464708e-16
2.457716e-16
8.784709e-17
2.922232e-17
9.555715e-18
3.030833e-18
8.795737e-19
1.860688e-19
-1.250805e-20
-5.438223e-20
-4.970063e-20
-3.764022e-20
-2.068906e-20
-9.119160e-21
-4.092703e-21
-1.268917e-21
-7.412270e-23
1.789878e-23
1.116618e-23
4.308066e-24
5.117741e-25
1.168125e-26
-1.677374e-27
3.290512e-27
2.865377e-27
1.243059e-27
1.000000e+00
1.000000e+00
1.000000e+00
1.000000e+00
1.000000e+00
1.000000e+00
1.000000e+00
9.999985e-01
9.999938e-01
9.999940e-01
9.999919e-01
9.992460e-01
9.929418e-01
9.723411e-01
9.301339e-01
8.318461e-01
7.228278e-01
5.194920e-01
4.071047e-01
2.222799e-01
1.368171e-01
6.858832e-02
3.014770e-02
1.136458e-02
3.490411e-03
9.652451e-04
4.613374e-04
2.297395e-04
1.136475e-04
4.130886e-05
8.127841e-06
2.157455e-06
1.834727e-06
1.353976e-06
5.952112e-07
1.288672e-07
1.370770e-08
7.091224e-09
3.034493e-09
1.892958e-09
1.668435e-09
1.087321e-09
5.420756e-10
2.580517e-10
9.860412e-11
1.792622e-11
2.585463e-12
1.721037e-12
1.206113e-12
7.867460e-13
4.201755e-13
1.495812e-13
1.724727e-14
-5.884294e-16
1.928819e-17
1.831827e-16
2.834649e-17
2.016836e-18
-5.665779e-18
-4.515098e-18
-2.532020e-18
-1.715793e-18
-5.488678e-19
-6.273775e-20
-3.973166e-20
-3.017335e-20
-1.978726e-20
-8.363347e-21
-4.040454e-21
-3.232007e-21
-1.882761e-21
-6.028448e-22
5.399625e-24
1.088539e-23
7.466704e-24
3.437333e-24
1.565686e-24
7.054835e-25
2.964652e-25
1.078621e-25
1.000000e+00
1.000000e+00
1.000000e+00
1.000000e+00
1.000000e+00
1.000000e+00
1.000000e+00
1.000000e+00
9.999970e-01
9.999951e-01
9.999951e-01
9.999347e-01
9.989684e-01
9.901650e-01
9.711253e-01
9.209588e-01
8.231279e-01
7.195419e-01
5.218267e-01
4.078286e-01
2.280986e-01
1.366090e-01
6.949656e-02
3.125166e-02
1.174688e-02
3.389207e-03
5.605049e-04
2.395394e-04
1.244891e-04
1.002891e-04
5.567500e-05
1.543615e-05
1.941733e-06
1.140546e-06
1.048490e-06
6.948040e-07
3.484686e-07
1.635061e-07
6.228228e-08
1.130110e-08
1.914629e-09
4.377063e-10
3.688253e-10
2.471823e-10
2.037146e-10
1.277458e-10
5.861319e-11
1.879877e-11
1.242601e-12
7.496403e-13
4.211572e-13
3.159771e-13
1.993031e-13
9.200085e-14
4.048019e-14
1.766832e-14
7.768723e-15
3.372886e-15
1.455968e-15
6.599720e-16
2.049511e-16
5.455451e-18
-4.722710e-19
-1.198759e-18
-5.909348e-19
-2.476395e-19
-1.207917e-19
-5.610741e-20
-1.484898e-20
-3.229977e-21
-2.543268e-21
-1.745274e-21
-1.017530e-21
-4.501612e-22
-1.944485e-22
-8.429225e-23
-3.000301e-23
-4.017948e-24
3.494508e-25
2.389375e-25
1.000000e+00
1.000000e+00
1.000000e+00
1.000000e+00
1.000000e+00
1.000000e+00
1.000000e+00
1.000000e+00
9.999993e-01
9.999969e-01
9.999977e-01
9.999709e-01
9.999767e-01
9.975306e-01
9.896382e-01
9.671365e-01
9.134537e-01
8.160088e-01
7.166045e-01
5.214780e-01
4.107469e-01
2.331914e-01
1.463469e-01
7.662712e-02
3.644853e-02
1.522263e-02
5.256931e-03
1.357107e-03
2.981318e-04
1.004557e-04
8.296537e-05
6.239811e-05
2.964464e-05
7.724269e-06
1.088274e-06
5.632998e-07
2.980615e-07
1.573721e-07
1.211655e-07
7.664248e-08
3.743494e-08
1.812662e-08
6.410135e-09
8.637238e-10
1.633808e-10
9.106429e-11
6.919933e-11
5.813192e-11
3.404073e-11
1.237821e-11
2.103162e-12
1.524484e-13
1.961854e-13
7.622507e-14
4.038172e-14
6.508546e-15
5.094587e-15
1.792473e-15
1.111331e-15
6.565699e-16
5.223393e-16
3.130440e-16
1.442518e-16
6.306482e-17
2.845565e-17
1.024985e-17
6.000758e-19
-1.323214e-19
-6.897639e-20
-2.902679e-20
-3.108720e-21
-1.432906e-21
-7.251513e-22
-3.896302e-22
-1.887744e-22
-7.682667e-23
-5.808342e-23
-3.662193e-23
-1.768430e-23
-6.611143e-24
1.000000e+00
1.000000e+00
1.000000e+00
1.000000e+00
1.000000e+00
1.000000e+00
1.000000e+00
1.000000e+00
1.000000e+00
9.999984e-01
9.999986e-01
9.999867e-01
9.999883e-01
9.996226e-01
9.969370e-01
9.879411e-01
9.629481e-01
9.061884e-01
8.112025e-01
7.119192e-01
5.210318e-01
4.143456e-01
2.385666e-01
1.469261e-01
7.674142e-02
3.695468e-02
1.604452e-02
5.939988e-03
1.813791e-03
4.363485e-04
9.069119e-05
6.216236e-05
4.896868e-05
3.076073e-05
1.484195e-05
5.681367e-06
2.554177e-06
7.567218e-07
1.094905e-07
6.475573e-08
3.572972e-08
1.762741e-08
1.430396e-08
8.843435e-09
4.335635e-09
1.459537e-09
1.336622e-10
4.988802e-11
3.392080e-11
2.554517e-11
1.577781e-11
7.604514e-12
3.447906e-12
1.584910e-12
7.258345e-13
3.325062e-13
1.474032e-13
6.980879e-14
2.307170e-14
2.358356e-15
4.790570e-16
1.339689e-16
1.342758e-16
6.118845e-17
2.927422e-17
2.125270e-17
1.465399e-17
4.409796e-18
-2.543715e-21
-5.070058e-20
-4.609208e-20
-2.246010e-20
-1.101575e-20
-5.365879e-21
-2.602809e-21
-7.010999e-22
-5.832227e-23
-2.041639e-23
-1.089646e-23
-6.640537e-24
1.000000e+00
1.000000e+00
1.000000e+00
1.000000e+00
1.000000e+00
1.000000e+00
1.000000e+00
1.000000e+00
1.000000e+00
9.999994e-01
9.999995e-01
9.999936e-01
9.999928e-01
9.999946e-01
9.993527e-01
9.961945e-01
9.859657e-01
9.585785e-01
8.992660e-01
8.087732e-01
7.066645e-01
5.196383e-01
4.154451e-01
2.429581e-01
1.591228e-01
8.339511e-02
4.028576e-02
1.766399e-02
6.898746e-03
2.331439e-03
6.592975e-04
1.587288e-04
5.964482e-05
3.738463e-05
2.342099e-05
1.076019e-05
4.221686e-06
2.696888e-06
1.489573e-06
7.245041e-07
2.892065e-07
6.670854e-08
1.422105e-08
7.700016e-09
4.359896e-09
3.627577e-09
2.263002e-09
8.605604e-10
1.493590e-10
2.682613e-11
1.532586e-11
3.873388e-12
2.828718e-12
1.341976e-12
6.926933e-13
1.550237e-13
1.397777e-13
7.024730e-14
5.605095e-14
3.344648e-14
1.516962e-14
6.841516e-15
3.175764e-15
1.225513e-15
1.574001e-16
2.316570e-17
1.484575e-17
1.172216e-17
6.856184e-18
3.020824e-18
1.302557e-18
5.781691e-19
1.703379e-19
-2.954553e-21
-2.844995e-21
-2.475761e-21
-1.447887e-21
-6.728265e-22
-3.182555e-22
-1.259645e-22
1.000000e+00
1.000000e+00
1.000000e+00
1.000000e+00
1.000000e+00
1.000000e+00
1.000000e+00
1.000000e+00
1.000000e+00
9.999998e-01
9.999998e-01
9.999977e-01
9.999948e-01
9.999966e-01
9.999316e-01
9.991019e-01
9.953093e-01
9.837639e-01
9.546743e-01
8.884822e-01
8.115070e-01
7.049034e-01
5.184729e-01
4.165187e-01
2.444731e-01
1.649064e-01
8.850907e-02
4.341842e-02
1.932794e-02
7.740027e-03
2.733033e-03
8.232060e-04
2.236603e-04
7.545737e-05
4.257248e-05
2.824810e-05
1.304233e-05
3.442893e-06
1.328844e-06
6.876069e-07
5.607217e-07
3.598870e-07
1.894420e-07
6.814565e-08
1.066099e-08
2.713155e-09
2.204355e-09
1.772588e-09
1.105223e-09
5.417033e-10
2.409630e-10
1.159460e-10
5.174298e-11
2.361436e-11
1.079763e-11
5.128441e-12
1.728363e-12
1.994207e-13
3.499542e-14
3.191253e-14
1.367112e-14
5.923125e-15
2.957856e-15
2.362337e-15
1.665224e-15
5.462857e-16
3.876731e-17
9.796882e-18
6.418385e-18
2.567102e-18
3.540578e-19
5.643386e-19
4.675147e-19
2.699996e-19
1.156657e-19
4.836043e-20
1.982602e-20
8.023643e-21
3.226881e-21
1.168070e-21
1.000000e+00
1.000000e+00
1.000000e+00
1.000000e+00
1.000000e+00
1.000000e+00
1.000000e+00
1.000000e+00
1.000000e+00
9.999999e-01
9.999999e-01
9.999997e-01
9.999970e-01
9.999963e-01
9.999984e-01
9.998326e-01
9.989792e-01
9.937423e-01
9.845871e-01
9.402756e-01
8.937367e-01
7.989533e-01
7.032436e-01
5.214410e-01
4.170865e-01
2.478066e-01
1.704773e-01
9.365897e-02
4.706332e-02
2.143056e-02
8.821568e-03
3.223819e-03
1.015077e-03
2.720109e-04
7.425226e-05
3.862708e-05
3.032289e-05
1.900672e-05
9.037029e-06
3.045669e-06
5.940266e-07
3.470472e-07
1.924584e-07
1.552787e-07
9.882444e-08
4.047569e-08
8.274914e-09
1.862941e-09
1.096015e-09
5.449694e-10
2.348419e-10
1.156470e-10
4.219465e-11
2.242003e-11
7.924752e-12
5.057367e-12
4.208126e-12
2.579248e-12
1.200308e-12
5.399257e-13
2.519479e-13
9.783951e-14
1.423319e-14
1.479831e-15
1.614309e-15
1.336503e-15
7.968714e-16
3.607144e-16
1.626741e-16
7.644505e-17
2.603839e-17
2.030010e-18
-1.382146e-19
2.384393e-19
9.859317e-20
3.728966e-20
1.025016e-20
6.211215e-21
2.955139e-21
-6.446430e-22
1.000000e+00
1.000000e+00
1.000000e+00
1.000000e+00
1.000000e+00
1.000000e+00
1.000000e+00
1.000000e+00
1.000000e+00
1.000000e+00
9.999999e-01
9.999999e-01
9.999991e-01
9.999970e-01
9.999972e-01
9.999273e-01
9.999596e-01
9.969614e-01
9.968246e-01
9.755306e-01
9.436178e-01
8.871515e-01
7.906614e-01
7.010141e-01
5.218927e-01
4.173733e-01
2.502974e-01
1.743796e-01
9.762546e-02
5.030826e-02
2.347662e-02
9.952449e-03
3.809792e-03
1.288672e-03
3.700883e-04
8.305363e-05
2.975265e-05
1.930800e-05
1.410600e-05
9.501326e-06
4.961779e-06
1.836890e-06
5.243301e-07
1.530554e-07
9.935320e-08
7.753471e-08
4.954162e-08
2.568324e-08
1.203989e-08
6.032091e-09
2.694125e-09
1.256288e-09
5.887035e-10
2.848835e-10
1.030335e-10
1.473795e-11
3.449641e-12
2.344936e-12
6.259715e-13
3.801186e-13
2.415831e-13
1.878771e-13
1.321476e-13
4.484305e-14
5.177966e-15
1.231296e-15
5.423530e-16
2.786916e-16
1.592253e-16
7.803345e-17
6.220314e-17
3.732590e-17
1.724347e-17
7.694782e-18
3.512480e-18
1.569834e-18
6.964636e-19
3.081039e-19
1.373931e-19
5.565044e-20
1.000000e+00
1.000000e+00
1.000000e+00
1.000000e+00
1.000000e+00
1.000000e+00
1.000000e+00
1.000000e+00
1.000000e+00
1.000000e+00
1.000000e+00
9.999999e-01
9.999999e-01
9.999984e-01
9.999997e-01
9.999662e-01
9.999763e-01
9.986327e-01
9.986033e-01
9.923979e-01
9.749226e-01
9.412177e-01
8.823031e-01
7.836271e-01
6.994065e-01
5.244193e-01
4.206008e-01
2.546002e-01
1.790278e-01
1.014417e-01
5.354802e-02
2.548153e-02
1.099797e-02
4.332425e-03
1.563499e-03
5.119086e-04
1.464431e-04
4.479028e-05
1.844743e-05
1.124894e-05
7.487916e-06
4.079458e-06
2.264807e-06
1.128178e-06
4.226079e-07
8.540157e-08
5.042267e-08
2.574177e-08
1.212631e-08
6.133130e-09
2.472356e-09
9.380167e-10
4.656621e-10
2.712556e-10
2.332157e-10
1.452725e-10
6.956153e-11
3.310520e-11
1.592978e-11
6.460763e-12
1.104886e-12
1.302611e-13
1.294216e-13
1.040398e-13
6.295641e-14
2.889800e-14
1.317818e-14
6.213241e-15
2.078290e-15
2.190615e-16
2.905640e-17
3.460382e-17
1.272325e-17
7.492785e-18
2.115084e-18
1.084707e-18
6.782643e-19
3.009193e-19
7.310059e-20
5.500716e-20
1.000000e+00
1.000000e+00
1.000000e+00
1.000000e+00
1.000000e+00
1.000000e+00
1.000000e+00
1.000000e+00
1.000000e+00
1.000000e+00
1.000000e+00
1.000000e+00
1.000000e+00
9.999993e-01
9.999997e-01
9.999848e-01
9.999865e-01
9.993847e-01
9.993789e-01
9.979530e-01
9.905332e-01
9.730695e-01
9.372630e-01
8.796817e-01
7.714882e-01
6.917904e-01
5.232674e-01
4.221972e-01
2.585867e-01
1.840230e-01
1.048519e-01
5.701566e-02
2.783267e-02
1.220055e-02
4.826533e-03
1.739961e-03
5.745246e-04
1.814027e-04
5.981334e-05
2.317108e-05
1.206657e-05
7.421425e-06
3.473802e-06
1.617329e-06
1.059723e-06
6.718156e-07
3.420648e-07
1.738928e-07
8.820911e-08
4.525636e-08
2.183911e-08
1.114285e-08
4.470961e-09
9.759469e-10
1.891064e-10
1.084735e-10
5.764188e-11
2.834801e-11
1.487991e-11
1.194218e-11
8.310263e-12
3.173936e-12
5.218792e-13
7.452514e-14
4.963147e-14
2.215595e-14
9.213857e-15
6.228577e-15
5.074839e-15
3.107618e-15
1.436918e-15
6.517343e-16
3.006438e-16
1.377700e-16
6.444759e-17
2.957161e-17
1.351266e-17
6.378240e-18
2.142341e-18
3.000044e-19
1.000000e+00
1.000000e+00
1.000000e+00
1.000000e+00
1.000000e+00
1.000000e+00
1.000000e+00
1.000000e+00
1.000000e+00
1.000000e+00
1.000000e+00
1.000000e+00
1.000000e+00
9.999997e-01
9.999998e-01
9.999931e-01
9.999948e-01
9.997725e-01
9.995554e-01
9.994599e-01
9.969858e-01
9.892692e-01
9.704644e-01
9.338000e-01
8.782767e-01
7.661857e-01
6.869176e-01
5.219876e-01
4.233041e-01
2.619776e-01
1.899575e-01
1.067810e-01
5.991989e-02
3.035344e-02
1.378927e-02
5.610013e-03
2.045713e-03
6.773257e-04
2.134438e-04
7.117708e-05
2.689420e-05
1.330337e-05
9.601365e-06
4.335378e-06
1.427321e-06
6.928597e-07
3.208874e-07
1.718234e-07
8.624201e-08
4.434880e-08
2.017577e-08
1.110808e-08
8.833410e-09
5.610150e-09
2.798559e-09
1.330501e-09
6.468794e-10
2.794561e-10
6.575999e-11
1.158541e-11
7.832115e-12
6.239995e-12
3.917564e-12
1.895994e-12
8.843990e-13
4.276988e-13
1.475120e-13
1.770295e-14
2.810068e-15
2.534119e-15
9.245874e-16
5.375891e-16
1.588095e-16
1.157137e-16
3.039125e-17
2.741790e-17
9.844484e-18
6.467456e-18
5.173276e-18
2.653405e-18
1.000000e+00
1.000000e+00
1.000000e+00
1.000000e+00
1.000000e+00
1.000000e+00
1.000000e+00
1.000000e+00
1.000000e+00
1.000000e+00