# vtk DataFile Version 3.0
MUSCL
ASCII
DATASET STRUCTURED_POINTS
DIMENSIONS 80 80 1
ORIGIN 0 0 0
SPACING 0.0125 0.0125 1
POINT_DATA 6400
SCALARS Temperature double 1
LOOKUP_TABLE default
0.000000e+00
-6.740008e-01
-1.939449e-01
-2.456197e-02
-3.518809e-04
1.963131e-05
-1.345375e-07
-5.933827e-07
-1.986058e-07
-7.722156e-08
-3.399460e-08
-1.619743e-08
-7.759567e-09
-3.744701e-09
-1.247270e-09
-3.213418e-10
-6.211196e-12
3.022125e-12
7.949319e-13
1.233489e-13
4.080782e-14
1.634296e-14
8.176203e-15
4.782358e-15
2.760095e-15
1.492786e-15
7.740142e-16
3.525834e-16
1.377805e-16
3.538610e-17
-1.311265e-18
-2.013073e-19
-1.779267e-19
-1.116809e-19
-2.720701e-20
-3.927712e-22
1.347111e-22
1.267960e-22
9.684973e-22
1.843365e-21
1.249597e-21
-1.340957e-24
-7.333207e-24
-7.388773e-24
-4.224989e-24
-2.272725e-24
-1.239103e-24
-6.511888e-25
-3.239989e-25
-1.535452e-25
-7.029462e-26
-3.051408e-26
-6.871361e-27
5.252557e-29
1.111376e-28
5.266053e-29
1.776589e-29
5.866542e-30
2.114037e-30
8.216085e-31
3.320510e-31
7.989866e-32
1.965350e-33
-1.189776e-35
-1.629264e-34
-1.069695e-34
-3.899268e-35
-1.299949e-35
-4.617695e-36
-1.890582e-36
-8.662002e-37
-4.149147e-37
-1.999234e-37
-9.468778e-38
-4.885305e-38
-1.823697e-38
-7.304822e-40
1.736058e-40
7.450930e-41
3.999271e-41
1.325999e+00
6.740008e-01
1.939449e-01
2.456197e-02
3.518809e-04
-1.963131e-05
1.345375e-07
5.933827e-07
1.986058e-07
7.722156e-08
3.399460e-08
1.619743e-08
7.759567e-09
3.744701e-09
1.247270e-09
3.213418e-10
6.211196e-12
-3.022125e-12
-7.949319e-13
-1.233489e-13
-4.080782e-14
-1.634296e-14
-8.176203e-15
-4.782358e-15
-2.760095e-15
-1.492786e-15
-7.740142e-16
-3.525834e-16
-1.377805e-16
-3.538610e-17
1.311265e-18
2.013073e-19
1.779267e-19
1.116809e-19
2.720701e-20
3.927712e-22
-1.347111e-22
-1.267960e-22
-9.684973e-22
-1.843365e-21
-1.249597e-21
1.340957e-24
7.333207e-24
7.388773e-24
4.224989e-24
2.272725e-24
1.239103e-24
6.511888e-25
3.239989e-25
1.535452e-25
7.029462e-26
3.051408e-26
6.871361e-27
-5.252557e-29
-1.111376e-28
-5.266053e-29
-1.776589e-29
-5.866542e-30
-2.114037e-30
-8.216085e-31
-3.320510e-31
-7.989866e-32
-1.965350e-33
1.189776e-35
1.629264e-34
1.069695e-34
3.899268e-35
1.299949e-35
4.617695e-36
1.890582e-36
8.662002e-37
4.149147e-37
1.999234e-37
9.468778e-38
4.885305e-38
1.823697e-38
7.304822e-40
-1.736058e-40
-7.450930e-41
-3.999271e-41
1.041913e+00
9.580867e-01
5.984954e-01
2.397622e-01
5.879802e-02
3.833246e-03
-7.396278e-05
-4.485138e-05
-1.734003e-05
-6.789914e-06
-2.971490e-06
-1.394621e-06
-6.021036e-07
-1.258583e-07
-5.257195e-10
1.475105e-09
9.325091e-10
3.014213e-10
1.686001e-11
-3.836724e-13
-7.427807e-15
1.293762e-13
6.661162e-14
1.140242e-14
-3.633399e-16
-1.398896e-15
-6.137905e-16
-4.529934e-16
-3.681145e-16
-2.360829e-16
-1.256345e-16
-5.990958e-17
-1.776817e-17
-1.082347e-19
3.345351e-19
6.801542e-20
2.810038e-20
1.064628e-20
1.200488e-21
-1.589245e-21
-1.284576e-21
-1.914026e-21
-1.740728e-21
-9.686512e-22
-5.093761e-22
-2.562286e-22
-1.265238e-22
-6.137057e-23
-2.978395e-23
-1.142883e-23
-2.386678e-24
8.991639e-26
3.300132e-26
2.423210e-26
1.078103e-26
4.241858e-27
1.637898e-27
6.573872e-28
2.704097e-28
1.168204e-28
1.712808e-29
-6.681160e-31
-3.112641e-31
-1.122785e-31
-3.636638e-32
-1.257265e-32
-4.687186e-33
-1.826452e-33
-7.287202e-34
-2.972791e-34
-1.256745e-34
-5.553938e-35
-2.547876e-35
-1.302180e-35
-4.393801e-36
-1.728525e-37
7.798924e-38
1.769818e-38
9.141556e-39
3.984616e-39
9.995462e-01
1.000454e+00
8.866020e-01
5.935332e-01
2.706679e-01
8.390717e-02
1.597719e-02
1.287601e-03
4.985096e-04
2.208690e-04
8.091643e-05
1.123636e-05
-7.233147e-07
-6.506478e-07
-3.767465e-07
-1.388763e-07
-7.318992e-09
4.083482e-10
4.741024e-10
5.035723e-11
-9.718806e-13
-9.500491e-13
-6.301704e-13
-2.996483e-13
-1.255566e-13
-5.910923e-14
-1.663767e-14
-2.992843e-16
-2.875263e-16
-8.084905e-17
-8.763761e-17
-6.404694e-17
-5.302278e-17
-3.186498e-17
-1.472493e-17
-6.436763e-18
-2.742353e-18
-1.136237e-18
-4.152486e-19
-1.126009e-19
-2.887813e-21
-1.761179e-21
-1.379120e-21
-7.134466e-22
1.466993e-23
-3.206014e-23
-8.924309e-23
-3.464884e-23
-2.373616e-23
-2.162938e-23
-1.510419e-23
-8.432928e-24
-4.010435e-24
-1.789254e-24
-7.416499e-25
-2.934481e-25
-1.159699e-25
-4.868095e-26
-1.474794e-26
-1.637437e-28
1.450736e-28
8.409112e-29
2.833993e-29
1.025897e-29
3.886846e-30
1.480947e-30
5.616888e-31
2.118165e-31
7.978953e-32
3.041278e-32
1.190862e-32
5.013807e-33
1.966106e-33
3.899448e-34
-5.346940e-36
-5.779962e-36
-4.026122e-36
-1.942136e-36
-8.716277e-37
-3.991078e-37
9.999190e-01
1.000081e+00
9.864135e-01
8.524124e-01
5.808913e-01
2.961422e-01
9.881490e-02
2.193200e-02
7.068545e-04
1.555306e-04
1.474938e-04
9.676074e-05
4.255810e-05
7.856736e-06
-2.117282e-07
-2.952736e-07
-2.095344e-07
-5.549431e-08
-8.772685e-10
7.163275e-10
3.805312e-10
1.404206e-10
5.573911e-11
2.303128e-11
7.979011e-12
8.600998e-13
-2.479220e-14
-3.644776e-14
-1.223477e-14
-2.717463e-16
1.843334e-16
3.207087e-16
2.193161e-16
1.078718e-16
5.483150e-17
1.752842e-17
4.449521e-19
-1.371935e-18
-8.335451e-19
-4.567687e-19
-2.185682e-19
-9.061294e-20
-4.497659e-20
-2.430896e-20
-1.328726e-20
-7.115050e-21
-3.754463e-21
-1.476431e-21
-2.008562e-22
2.558859e-24
-1.289682e-23
-6.444815e-24
-1.618646e-24
-5.710791e-25
-2.815262e-25
-9.755000e-26
-3.813183e-26
-3.762399e-26
-3.374021e-26
-2.139179e-26
-9.653331e-27
-4.165425e-27
-1.728043e-27
-6.905454e-28
-2.662060e-28
-9.981876e-29
-3.662328e-29
-1.322374e-29
-4.752807e-30
-1.755961e-30
-5.813577e-31
-9.653028e-32
5.230287e-33
2.065295e-33
1.143946e-33
5.445188e-34
2.558821e-34
1.186143e-34
5.155674e-35
1.866760e-35
9.999664e-01
1.000034e+00
9.997080e-01
9.650965e-01
8.296365e-01
5.645818e-01
3.365088e-01
1.267521e-01
3.488022e-02
2.724385e-03
-3.426252e-05
8.001355e-05
6.853806e-05
4.771936e-05
2.040679e-05
3.635055e-06
-1.839016e-07
-1.826399e-07
-1.132569e-07
-4.891113e-08
-2.117024e-08
-9.358608e-09
-3.319077e-09
-1.915883e-10
9.047909e-12
8.963110e-12
4.555670e-12
5.407345e-13
-4.211653e-14
-2.921050e-14
-1.533434e-14
-5.888905e-15
-1.829744e-15
-4.453240e-16
4.308036e-17
4.998220e-17
3.562632e-17
1.696490e-17
7.371086e-18
2.851221e-18
9.187750e-19
2.027387e-19
-9.773945e-21
-9.889092e-21
-1.137226e-20
-7.024915e-21
-3.625160e-21
-2.997394e-21
-2.189900e-21
-1.065636e-21
-5.280637e-22
-2.683233e-22
-1.279165e-22
-5.790072e-23
-2.517942e-23
-1.091909e-23
-4.040919e-24
-5.193236e-25
-1.408795e-26
-1.352825e-26
-8.584192e-27
-3.800673e-27
8.851205e-28
2.089692e-28
1.091281e-28
-9.041645e-30
1.526028e-30
-3.880103e-30
-2.769023e-30
-1.685364e-30
-1.147585e-30
-6.693061e-31
-3.097851e-31
-1.250302e-31
-5.264189e-32
-2.324787e-32
-1.078677e-32
-3.783120e-33
-8.761997e-35
6.226816e-35
9.999903e-01
1.000010e+00
1.000005e+00
9.982962e-01
9.484652e-01
8.110955e-01
5.426409e-01
3.576682e-01
1.480085e-01
5.021188e-02
9.817432e-03
2.459218e-04
4.258917e-05
4.277808e-05
3.605617e-05
2.256846e-05
1.165194e-05
4.810831e-06
2.018534e-06
7.827579e-07
1.543148e-07
-1.076699e-08
-7.006935e-09
-4.742615e-09
-1.172456e-09
-1.137574e-11
6.422255e-12
5.166258e-12
3.045840e-12
1.640885e-12
7.896299e-13
3.602684e-13
1.321298e-13
1.531763e-14
-1.237728e-16
-2.259655e-16
-1.069313e-16
-6.027859e-17
-2.809785e-17
-1.154501e-17
-5.149017e-18
-2.670768e-18
-1.459910e-18
-7.728234e-19
-3.685849e-19
-1.593671e-19
-2.810081e-20
-4.416033e-22
-2.012772e-21
-9.118690e-22
-2.980160e-22
-1.858383e-22
-1.243663e-22
-2.406625e-23
-1.307622e-23
-9.784407e-24
-6.659977e-24
-4.308171e-24
-1.982258e-24
-8.794885e-25
-3.662572e-25
-1.524216e-25
-6.758858e-26
-3.019731e-26
-1.211623e-26
-4.753234e-27
-1.850958e-27
-6.853217e-28
-1.894320e-28
-5.008004e-30
1.152683e-30
2.598114e-31
-1.352329e-31
-1.137915e-31
1.188659e-31
3.002567e-32
-2.099984e-33
-2.871779e-33
-4.247586e-33
-2.344109e-33
9.999976e-01
1.000002e+00
1.000002e+00
1.000001e+00
9.918450e-01
9.348334e-01
7.949187e-01
5.168143e-01
3.729843e-01
1.556621e-01
5.848244e-02
1.612781e-02
2.122580e-03
1.160204e-04
2.630703e-05
2.067056e-05
1.098801e-05
4.484103e-06
1.943623e-06
1.303187e-06
8.628385e-07
3.777785e-07
5.384179e-08
-6.374837e-09
-4.360356e-09
-2.565353e-09
-1.111967e-09
-4.829335e-10
-2.086449e-10
-9.139934e-11
-3.905391e-11
-5.781999e-12
1.588508e-13
1.515690e-13
8.680848e-14
3.606077e-14
1.434284e-14
5.754494e-15
2.378389e-15
1.011084e-15
4.359729e-16
1.907386e-16
7.678793e-17
1.436734e-17
-2.223465e-19
-3.040104e-19
-2.229539e-19
-1.041208e-19
-5.054985e-20
-2.496512e-20
-1.210835e-20
-5.811954e-21
-2.727878e-21
-1.253991e-21
-5.131468e-22
-1.436406e-22
-4.553559e-24
-3.694925e-24
-1.750031e-24
-7.188690e-25
-5.612643e-25
-2.913018e-25
-1.211731e-25
-3.580955e-26
-1.112080e-26
-4.497873e-27
-2.421585e-27
-1.207810e-27
-6.550682e-28
-3.305969e-28
-1.249877e-28
-4.842480e-29
-1.928087e-29
-7.886130e-30
-3.412837e-30
-1.434211e-30
-4.530679e-31
-3.965366e-32
1.070665e-33
7.916979e-34
9.999995e-01
1.000001e+00
1.000000e+00
1.000024e+00
9.998267e-01
9.850386e-01
9.218187e-01
7.795059e-01
5.212861e-01
3.784878e-01
1.651075e-01
6.673803e-02
2.049550e-02
4.253581e-03
3.824203e-04
8.276765e-05
4.533983e-05
2.526195e-05
9.361021e-06
1.857078e-06
8.547328e-07
6.793376e-07
4.096911e-07
1.959895e-07
8.475024e-08
3.600806e-08
1.498091e-08
6.417194e-09
1.840911e-09
-4.113508e-11
-4.443693e-11
-3.771475e-11
-1.843369e-11
-7.987860e-12
-3.493845e-12
-1.536761e-12
-6.750783e-13
-2.956145e-13
-1.285943e-13
-5.521136e-14
-1.550482e-14
2.124354e-17
7.548923e-17
7.485511e-17
3.933819e-17
9.960503e-18
2.058231e-18
7.047292e-19
3.104362e-19
1.366540e-19
5.693303e-20
1.599989e-20
-2.210070e-22
-1.228966e-21
-9.752339e-22
-5.776835e-22
-2.872123e-22
-1.224236e-22
-3.928905e-23
-7.763333e-24
-7.204221e-25
-2.264136e-25
-3.109929e-28
-1.532454e-26
-3.681587e-26
-6.772295e-27
4.605941e-27
-7.190766e-28
-6.233448e-28
-2.787560e-28
-1.206737e-28
-1.116060e-29
-1.089213e-29
-5.165210e-30
-3.143128e-30
-8.475993e-31
-8.340850e-31
-5.285187e-31
-2.568911e-31
-1.284293e-31
9.999998e-01
1.000000e+00
1.000000e+00
1.000010e+00
1.000011e+00
9.989013e-01
9.786561e-01
9.079801e-01
7.698384e-01
5.222072e-01
3.811420e-01
1.772252e-01
7.570840e-02
2.538240e-02
5.887626e-03
4.330120e-04
4.822099e-05
3.070701e-05
2.532146e-05
1.389395e-05
3.815991e-06
6.871281e-07
3.713993e-07
1.884232e-07
7.739067e-08
3.320099e-08
1.468773e-08
6.515747e-09
4.986660e-09
2.835052e-09
1.183483e-09
4.792093e-10
1.952320e-10
8.110519e-11
3.418658e-11
1.446176e-11
6.324493e-12
1.772334e-12
-7.212687e-14
-6.912264e-14
-5.183570e-14
-2.627299e-14
-5.308030e-15
3.737267e-17
5.642726e-17
3.114110e-17
6.120344e-18
6.879755e-19
1.646819e-19
8.577415e-20
3.343233e-20
3.989313e-20
2.434962e-20
1.066027e-20
3.425970e-21
8.220634e-22
5.413292e-23
-9.402020e-23
-8.551622e-23
-4.524691e-23
-1.699684e-23
-8.109379e-24
-3.685587e-24
-2.048677e-24
-1.242089e-24
-5.243786e-25
-1.961584e-25
-7.049078e-26
-2.696028e-26
-1.042093e-26
-4.021247e-27
-1.567845e-27
-6.276034e-28
-2.645793e-28
-9.411845e-29
-1.868453e-29
-4.698406e-31
-3.624654e-31
-2.375486e-31
-1.777531e-31
9.999999e-01
1.000000e+00
1.000000e+00
1.000002e+00
1.000013e+00
9.999893e-01
9.971947e-01
9.709540e-01
8.968887e-01
7.615529e-01
5.236886e-01
3.741559e-01
1.875495e-01
8.582016e-02
3.195437e-02
8.868383e-03
1.239876e-03
4.792047e-05
2.590075e-05
2.226160e-05
1.614237e-05
6.990783e-06
2.005053e-06
8.601700e-07
4.935075e-07
2.587277e-07
1.071119e-07
2.746243e-08
4.417302e-09
2.851621e-09
7.936049e-10
4.454645e-10
1.932381e-10
8.268295e-11
1.223152e-11
1.259425e-11
6.330315e-12
4.978074e-12
2.692011e-12
5.931977e-13
-5.520146e-14
-4.014292e-14
-2.836016e-14
-1.208810e-14
-1.773543e-15
1.283276e-17
4.464008e-17
2.367726e-17
1.089204e-17
4.852424e-18
7.762926e-19
-1.341558e-20
1.209997e-20
8.440426e-21
3.341413e-21
7.317878e-22
2.009847e-22
-1.040195e-22
-1.209482e-22
-9.183921e-23
-5.962387e-23
-3.320345e-23
-2.023906e-23
-1.024740e-23
-2.644236e-24
-3.619203e-25
-1.071808e-25
-5.818095e-26
-2.682511e-26
-1.081486e-26
-3.390895e-27
-1.600981e-27
-5.678272e-28
-2.611175e-28
-1.926423e-28
-1.170791e-28
-5.319765e-29
-2.220157e-29
-4.940608e-30
-2.297122e-31
1.000000e+00
1.000000e+00
1.000000e+00
1.000000e+00
1.000006e+00
1.000007e+00
9.999628e-01
9.941730e-01
9.638106e-01
8.860961e-01
7.588543e-01
5.119494e-01
3.894172e-01
1.921773e-01
9.239394e-02
3.717428e-02
1.167328e-02
2.318549e-03
6.296737e-05
1.318853e-05
1.676394e-05
1.393280e-05
7.333391e-06
1.979892e-06
5.075460e-07
2.694826e-07
2.027042e-07
1.297343e-07
6.475788e-08
3.039217e-08
1.401415e-08
6.370503e-09
2.929222e-09
1.382665e-09
6.639212e-10
2.171817e-10
2.682557e-11
3.510739e-12
3.685879e-12
2.814198e-12
1.350780e-12
2.809728e-13
-3.186135e-14
-2.335266e-14
-1.480111e-14
-7.222759e-15
-3.126146e-15
-8.345406e-16
1.121057e-17
5.209574e-18
4.427945e-18
2.451843e-18
1.144375e-18
5.162339e-19
1.325083e-19
7.906684e-21
4.763481e-22
3.812281e-23
6.979616e-23
7.753088e-23
5.569939e-23
-1.329487e-23
-2.055296e-23
-1.157014e-23
-3.365452e-24
-5.192506e-25
-2.667152e-25
-1.131883e-25
-1.008510e-25
-6.266076e-26
-3.260294e-26
-1.620838e-26
-6.110987e-27
-1.216506e-27
-1.173734e-28
-8.079365e-29
-4.602315e-29
-1.651090e-29
-1.674828e-29
-9.680599e-30
1.000000e+00
1.000000e+00
1.000000e+00
1.000000e+00
1.000002e+00
1.000006e+00
1.000007e+00
9.997416e-01
9.914356e-01
9.548166e-01
8.817116e-01
7.454039e-01
5.159837e-01
3.938794e-01
1.986794e-01
9.890821e-02
4.198583e-02
1.454551e-02
3.642879e-03
3.565139e-04
1.490139e-05
1.639223e-05
1.336342e-05
9.571349e-06
3.787856e-06
7.044221e-07
1.553704e-07
9.569212e-08
5.564813e-08
2.560315e-08
9.833879e-09
6.485910e-09
2.370669e-09
1.243176e-09
6.716517e-10
5.377661e-10
3.034539e-10
7.838106e-11
3.218716e-12
2.662883e-12
2.000657e-12
1.383286e-12
7.172478e-13
2.997438e-13
9.583284e-14
3.967770e-15
-3.189307e-15
-2.809899e-15
-1.543624e-15
-6.705743e-16
-2.940252e-16
-7.969322e-17
1.374099e-19
6.274740e-19
5.050254e-19
1.952338e-19
7.258497e-21
-2.765384e-21
-9.892434e-22
-1.244395e-22
4.024399e-23
9.053634e-23
8.335923e-23
4.662063e-23
2.589197e-23
1.375008e-23
6.713728e-24
3.019712e-24
1.269141e-24
5.006449e-25
9.145889e-26
-1.535527e-26
-1.288343e-26
-8.085145e-27
-3.934238e-27
-1.785024e-27
-7.751330e-28
-2.049768e-28
-2.171164e-29
-1.052470e-29
1.000000e+00
1.000000e+00
1.000000e+00
1.000000e+00
1.000001e+00
1.000002e+00
1.000006e+00
9.999085e-01
9.998616e-01
9.863151e-01
9.507982e-01
8.715171e-01
7.384766e-01
5.162055e-01
3.972394e-01
2.052118e-01
1.052117e-01
4.640886e-02
1.748047e-02
5.037013e-03
6.054230e-04
1.309507e-05
7.860662e-06
9.020688e-06
7.942830e-06
5.103500e-06
2.577976e-06
1.246530e-06
5.982282e-07
2.849444e-07
1.368174e-07
6.405307e-08
3.094374e-08
1.113221e-08
2.144371e-09
4.776245e-10
4.368203e-10
3.303815e-10
1.498329e-10
3.091458e-11
2.093257e-12
1.331932e-12
6.282772e-13
2.771897e-13
2.081350e-13
1.232459e-13
5.490569e-14
2.258888e-14
7.292772e-15
1.156404e-16
-3.227530e-16
-2.619351e-16
-1.531009e-16
-4.478791e-17
-5.375121e-19
3.174334e-19
3.263069e-19
1.454042e-19
6.163983e-20
1.679358e-20
2.772355e-22
-4.193992e-24
2.700441e-23
3.821601e-23
2.327926e-23
8.792843e-24
5.313435e-24
-1.445307e-24
5.992397e-25
5.745074e-25
4.451526e-25
2.337634e-25
9.070920e-26
3.204561e-26
8.703128e-27
8.973088e-28
-5.289319e-28
-5.074393e-28
-2.798642e-28
-2.291545e-29
1.000000e+00
1.000000e+00
1.000000e+00
1.000000e+00
1.000000e+00
1.000000e+00
1.000003e+00
9.999620e-01
9.999707e-01
9.977065e-01
9.838586e-01
9.446697e-01
8.634496e-01
7.326156e-01
5.157563e-01
4.002099e-01
2.115959e-01
1.117322e-01
5.059240e-02
2.043404e-02
7.063768e-03
1.717603e-03
2.210600e-04
1.673257e-05
7.382710e-06
-8.121990e-07
1.433030e-07
5.774924e-07
4.856869e-07
-4.144929e-09
4.224995e-08
4.702156e-08
3.046039e-08
2.466275e-08
1.489246e-08
4.733332e-09
4.586272e-10
2.694775e-10
2.541311e-10
1.716662e-10
8.728944e-11
3.987778e-11
1.452864e-11
2.085246e-12
1.156816e-13
8.259242e-14
1.285289e-14
1.689494e-14
1.493728e-14
9.455906e-15
3.774536e-15
5.813139e-16
-1.708280e-16
-1.259962e-16
-7.238778e-17
-3.226602e-17
-8.913865e-18
2.408672e-20
6.648760e-20
5.565402e-20
3.094903e-20
1.342927e-20
6.064430e-21
2.792324e-21
1.291649e-21
5.947642e-22
2.751944e-22
1.242660e-22
2.890443e-23
2.284877e-25
-1.329148e-25
-2.376785e-26
3.363649e-26
3.229707e-26
1.836696e-26
8.181383e-27
2.283968e-27
-1.321559e-28
-5.537734e-28
-4.338954e-28
1.000000e+00
1.000000e+00
1.000000e+00
1.000000e+00
1.000000e+00
1.000000e+00
1.000002e+00
9.999844e-01
9.999912e-01
9.999790e-01
9.962273e-01
9.801879e-01
9.386230e-01
8.558438e-01
7.275907e-01
5.149647e-01
4.022723e-01
2.167297e-01
1.190038e-01
5.373267e-02
2.142261e-02
7.362842e-03
2.238635e-03
7.272438e-04
3.145665e-04
1.428501e-04
6.353908e-05
2.824930e-05
1.304270e-05
5.906720e-06
2.766195e-06
8.805564e-07
1.210249e-07
2.183094e-08
1.950940e-08
1.523555e-08
7.994255e-09
2.012251e-09
2.411179e-10
1.457452e-10
6.441849e-11
3.742563e-11
2.996990e-11
1.898484e-11
8.769282e-12
4.015279e-12
1.526107e-12
2.317290e-13
-3.570691e-15
9.080954e-15
6.872353e-15
4.318815e-15
2.184643e-15
7.607838e-16
7.039932e-17
-3.416900e-17
-2.788656e-17
-1.603794e-17
-7.057293e-18
-3.073282e-18
-1.324541e-18
-5.674641e-19
-2.419255e-19
-1.021977e-19
-4.384010e-20
-1.259473e-20
2.536864e-22
1.643958e-22
1.236086e-22
6.282048e-23
2.756418e-23
1.114840e-23
2.253621e-24
7.805025e-26
1.058551e-26
-2.785997e-27
-6.851183e-27
-1.521831e-27
-5.313124e-28
-3.630539e-28
1.000000e+00
1.000000e+00
1.000000e+00
1.000000e+00
1.000000e+00
1.000000e+00
1.000001e+00
9.999935e-01
9.999931e-01
1.000002e+00
9.996758e-01
9.947592e-01
9.763790e-01
9.334215e-01
8.475471e-01
7.249412e-01
5.158078e-01
4.044416e-01
2.192233e-01
1.311756e-01
6.154210e-02
2.466279e-02
8.093891e-03
1.891771e-03
3.153138e-04
1.412105e-04
6.578216e-05
2.446829e-05
1.162809e-05
4.874236e-06
2.758959e-06
2.223349e-06
1.196329e-06
2.943063e-07
1.863970e-08
1.380353e-08
1.151163e-08
8.590865e-09
4.354599e-09
2.092228e-09
8.937360e-10
2.002549e-10
2.678757e-11
1.140304e-11
7.634946e-12
4.092085e-12
3.092068e-12
1.962712e-12
8.676862e-13
2.055825e-13
3.704701e-15
3.818706e-15
1.824192e-15
1.481030e-15
8.812558e-16
4.094629e-16
1.599277e-16
5.947961e-17
2.175826e-17
7.874629e-18
2.786361e-18
9.654313e-19
1.819065e-19
-8.128120e-20
-5.621965e-20
-3.803979e-20
-2.157298e-20
-9.258512e-21
-3.419822e-21
-7.886892e-22
2.815399e-23
1.743508e-23
1.229616e-23
6.091048e-24
1.707534e-24
5.962107e-26
-4.527684e-27
-1.213068e-26
-9.697248e-27
-4.985070e-27
1.000000e+00
1.000000e+00
1.000000e+00
1.000000e+00
1.000000e+00
1.000000e+00
1.000000e+00
9.999984e-01
9.999945e-01
9.999958e-01
1.000001e+00
9.992697e-01
9.929661e-01
9.723650e-01
9.301453e-01
8.318412e-01
7.228133e-01
5.194727e-01
4.070987e-01
2.222949e-01
1.368493e-01
6.861937e-02
3.017829e-02
1.136922e-02
3.541983e-03
9.499068e-04
4.671506e-04
2.215967e-04
1.151311e-04
4.227227e-05
8.422625e-06
2.321933e-06
1.810421e-06
1.320601e-06
5.816137e-07
1.226112e-07
7.756307e-09
3.951248e-09
4.130077e-09
2.153100e-09
1.686570e-09
1.087673e-09
5.457669e-10
2.640994e-10
1.001411e-10
1.889450e-11
1.826113e-12
1.287911e-12
1.133875e-12
8.707766e-13
4.607303e-13
1.720220e-13
2.392182e-14
8.754985e-16
6.143192e-16
-2.749929e-16
6.222036e-17
5.579322e-17
-5.877608e-17
-2.355155e-17
-7.102043e-18
-2.362097e-19
5.640783e-19
4.086028e-19
1.423537e-19
3.622267e-20
-6.943435e-22
-7.289602e-21
-6.407650e-21
-4.035615e-21
-2.130297e-21
-7.477713e-22
-1.033673e-22
4.521361e-24
5.541060e-24
3.241060e-24
1.430584e-24
5.567469e-25
2.076090e-25
5.631726e-26
1.000000e+00
1.000000e+00
1.000000e+00
1.000000e+00
1.000000e+00
1.000000e+00
1.000000e+00
1.000000e+00
9.999973e-01
9.999957e-01
9.999975e-01
9.999399e-01
9.989808e-01
9.901989e-01
9.711554e-01
9.209721e-01
8.231335e-01
7.195429e-01
5.218316e-01
4.078464e-01
2.281320e-01
1.366397e-01
6.952525e-02
3.126747e-02
1.176176e-02
3.383555e-03
5.582755e-04
2.068191e-04
1.210093e-04
9.926726e-05
5.604912e-05
1.710601e-05
2.148586e-06
1.097732e-06
1.015016e-06
6.697313e-07
3.288251e-07
1.540118e-07
5.959410e-08
1.157665e-08
1.567708e-09
8.276465e-10
5.132902e-10
2.613239e-10
1.992400e-10
1.250055e-10
6.303808e-11
2.145533e-11
1.908884e-12
4.537187e-13
4.493810e-13
3.582793e-13
2.209777e-13
9.942973e-14
4.350067e-14
1.945885e-14
8.633850e-15
3.818141e-15
1.717863e-15
7.892807e-16
2.457813e-16
6.508905e-18
-5.054483e-18
-1.106673e-18
-4.196990e-19
-1.740905e-19
-8.249219e-20
-3.185099e-20
-7.001553e-21
-3.848052e-21
-2.081696e-21
-1.593281e-21
-9.515347e-22
-4.478459e-22
-1.839900e-22
-7.849779e-23
-2.915715e-23
-4.288246e-24
1.717251e-25
1.689286e-25
1.000000e+00
1.000000e+00
1.000000e+00
1.000000e+00
1.000000e+00
1.000000e+00
1.000000e+00
1.000000e+00
9.999995e-01
9.999972e-01
9.999974e-01
9.999740e-01
9.999755e-01
9.975284e-01
9.896398e-01
9.671566e-01
9.134835e-01
8.160381e-01
7.166321e-01
5.215085e-01
4.107805e-01
2.332291e-01
1.463669e-01
7.664647e-02
3.646021e-02
1.522226e-02
5.245326e-03
1.321986e-03
2.912868e-04
9.893946e-05
8.321531e-05
6.113207e-05
2.939239e-05
8.044269e-06
1.150666e-06
5.184702e-07
3.324577e-07
1.436600e-07
1.190762e-07
7.619090e-08
3.649782e-08
1.711438e-08
6.517401e-09
1.157982e-09
1.572395e-10
1.116616e-10
6.679569e-11
5.230157e-11
3.276695e-11
1.274835e-11
2.119297e-12
2.540709e-13
2.188078e-13
8.889152e-14
4.103466e-14
1.873900e-14
8.828657e-15
1.770537e-15
1.622927e-15
8.301626e-16
6.309027e-16
3.740326e-16
1.680254e-16
7.234743e-17
3.193314e-17
1.141076e-17
1.285577e-18
-4.886408e-20
-5.289146e-20
-2.819294e-20
-9.720964e-21
-1.557736e-21
-9.553818e-22
-4.293862e-22
-1.517023e-22
-7.635256e-23
-5.320465e-23
-3.407220e-23
-1.747998e-23
-6.679667e-24
1.000000e+00
1.000000e+00
1.000000e+00
1.000000e+00
1.000000e+00
1.000000e+00
1.000000e+00
1.000000e+00
1.000000e+00
9.999985e-01
9.999986e-01
9.999874e-01
9.999880e-01
9.996017e-01
9.969238e-01
9.879528e-01
9.629824e-01
9.062345e-01
8.112474e-01
7.119653e-01
5.210670e-01
4.143854e-01
2.385839e-01
1.469405e-01
7.675760e-02
3.696369e-02
1.603010e-02
5.922391e-03
1.805928e-03
4.250861e-04
8.664525e-05
5.998715e-05
4.612942e-05
3.037274e-05
1.464633e-05
5.622791e-06
2.493631e-06
7.747720e-07
1.108821e-07
7.727719e-08
3.523625e-08
1.696438e-08
1.371742e-08
8.734403e-09
4.431148e-09
1.454226e-09
1.288748e-10
3.210103e-11
3.029373e-11
2.557166e-11
1.614139e-11
7.737545e-12
3.492651e-12
1.595199e-12
7.302017e-13
3.354846e-13
1.594848e-13
7.412470e-14
2.421608e-14
2.382821e-15
6.564798e-16
3.318818e-16
1.650289e-16
6.031570e-17
2.652312e-17
2.328533e-17
1.480565e-17
6.099504e-18
1.073076e-18
-4.027517e-21
-2.872837e-20
-1.891350e-20
-9.810535e-21
-4.840289e-21
-2.328365e-21
-6.798180e-22
-6.829959e-23
-1.012726e-23
-6.645391e-24
-5.309458e-24
1.000000e+00
1.000000e+00
1.000000e+00
1.000000e+00
1.000000e+00
1.000000e+00
1.000000e+00
1.000000e+00
1.000000e+00
9.999994e-01
9.999996e-01
9.999940e-01
9.999921e-01
9.999894e-01
9.993380e-01
9.962082e-01
9.859978e-01
9.586230e-01
8.993132e-01
8.088191e-01
7.067000e-01
5.196761e-01
4.154667e-01
2.429672e-01
1.591366e-01
8.340994e-02
4.027759e-02
1.764834e-02
6.889005e-03
2.326288e-03
6.555578e-04
1.572413e-04
5.602616e-05
3.478583e-05
2.186827e-05
1.004006e-05
3.826879e-06
2.485365e-06
1.409607e-06
7.133648e-07
2.831481e-07
6.250605e-08
1.402968e-08
8.546736e-09
4.632061e-09
3.654046e-09
2.246742e-09
8.627908e-10
1.487553e-10
2.445623e-11
8.583690e-12
7.037248e-12
3.251752e-12
9.417406e-13
4.617713e-13
2.093319e-13
1.572492e-13
7.608645e-14
5.959612e-14
3.574353e-14
1.690590e-14
7.529648e-15
3.554477e-15
1.346774e-15
2.092908e-16
5.204842e-18
1.379460e-17
1.127551e-17
7.114636e-18
3.579253e-18
1.528737e-18
6.611994e-19
2.286945e-19
2.651990e-20
-3.172857e-21
-2.359009e-21
-1.366047e-21
-6.595219e-22
-3.223527e-22
-1.314937e-22
1.000000e+00
1.000000e+00
1.000000e+00
1.000000e+00
1.000000e+00
1.000000e+00
1.000000e+00
1.000000e+00
1.000000e+00
9.999998e-01
9.999998e-01
9.999981e-01
9.999944e-01
9.999947e-01
9.999345e-01
9.991106e-01
9.953280e-01
9.837931e-01
9.547097e-01
8.885126e-01
8.115278e-01
7.049262e-01
5.184874e-01
4.165258e-01
2.444847e-01
1.649219e-01
8.851178e-02
4.340842e-02
1.931933e-02
7.737321e-03
2.732820e-03
8.242420e-04
2.233523e-04
7.419573e-05
4.087929e-05
2.676722e-05
1.233926e-05
2.939409e-06
1.442468e-06
7.036992e-07
5.549382e-07
3.566534e-07
1.936439e-07
6.820458e-08
1.089634e-08
3.227387e-09
2.219136e-09
1.753843e-09
1.104697e-09
5.238508e-10
2.454895e-10
1.137687e-10
5.204819e-11
2.431502e-11
1.095639e-11
5.249022e-12
1.824192e-12
2.217148e-13
2.386608e-14
2.644803e-14
1.100757e-14
7.579850e-15
3.615644e-15
2.763010e-15
1.792091e-15
7.499148e-16
1.395430e-16
1.122319e-17
1.846365e-18
2.905566e-18
9.408109e-19
6.533800e-19
4.760283e-19
2.883767e-19
1.326597e-19
5.508463e-20
2.249152e-20
9.069816e-21
3.612342e-21
1.301604e-21
1.000000e+00
1.000000e+00
1.000000e+00
1.000000e+00
1.000000e+00
1.000000e+00
1.000000e+00
1.000000e+00
1.000000e+00
9.999999e-01
9.999999e-01
9.999998e-01
9.999968e-01
9.999959e-01
9.999985e-01
9.998372e-01
9.989884e-01
9.937490e-01
9.845964e-01
9.402875e-01
8.937513e-01
7.989771e-01
7.032614e-01
5.214500e-01
4.170960e-01
2.478162e-01
1.704794e-01
9.365121e-02
4.705443e-02
2.142794e-02
8.824775e-03
3.230649e-03
1.021615e-03
2.761547e-04
7.576078e-05
3.894148e-05
2.982208e-05
1.959581e-05
9.395518e-06
2.899846e-06
5.466638e-07
3.555549e-07
1.958587e-07
1.573171e-07
9.875379e-08
4.016854e-08
8.592752e-09
1.397568e-09
7.961561e-10
3.275223e-10
2.164350e-10
1.078443e-10
3.640106e-11
1.719880e-11
8.129459e-12
5.333290e-12
4.237702e-12
2.558179e-12
1.194053e-12
5.345383e-13
2.605403e-13
1.062616e-13
1.746915e-14
1.807349e-15
1.782447e-15
1.379304e-15
8.844633e-16
4.197242e-16
1.868968e-16
8.565590e-17
3.283482e-17
4.779865e-18
2.961109e-19
2.564460e-19
6.668519e-20
2.147688e-20
8.002773e-21
3.004526e-21
2.124029e-21
7.463438e-22
1.000000e+00
1.000000e+00
1.000000e+00
1.000000e+00
1.000000e+00
1.000000e+00
1.000000e+00
1.000000e+00
1.000000e+00
1.000000e+00
9.999999e-01
9.999999e-01
9.999992e-01
9.999969e-01
9.999993e-01
9.999281e-01
9.999045e-01
9.969039e-01
9.968227e-01
9.755364e-01
9.436218e-01
8.871623e-01
7.906829e-01
7.010363e-01
5.219096e-01
4.173844e-01
2.502971e-01
1.743690e-01
9.761257e-02
5.030161e-02
2.347951e-02
9.963131e-03
3.822868e-03
1.299352e-03
3.764497e-04
8.734865e-05
3.073867e-05
1.969680e-05
1.451556e-05
9.667641e-06
4.880683e-06
1.797538e-06
5.304497e-07
1.441321e-07
9.818595e-08
7.565445e-08
4.920849e-08
2.508067e-08
1.196619e-08
5.733080e-09
2.675980e-09
1.271557e-09
6.103992e-10
2.955973e-10
1.035909e-10
1.557517e-11
4.033871e-12
1.510755e-12
1.090546e-12
4.526472e-13
2.649056e-13
2.022439e-13
1.330337e-13
5.445495e-14
9.761837e-15
6.946349e-16
3.506678e-16
4.146904e-16
1.628828e-16
8.505944e-17
6.491629e-17
4.148915e-17
1.938786e-17
8.619313e-18
3.814725e-18
1.683137e-18
7.409732e-19
3.251315e-19
1.422400e-19
6.328368e-20
1.000000e+00
1.000000e+00
1.000000e+00
1.000000e+00
1.000000e+00
1.000000e+00
1.000000e+00
1.000000e+00
1.000000e+00
1.000000e+00
1.000000e+00
9.999999e-01
9.999999e-01
9.999983e-01
9.999986e-01
9.999667e-01
9.999663e-01
9.986083e-01
9.986249e-01
9.925846e-01
9.749304e-01
9.412169e-01
8.823178e-01
7.836563e-01
6.994375e-01
5.244396e-01
4.206101e-01
2.545939e-01
1.790144e-01
1.014313e-01
5.354816e-02
2.549287e-02
1.101484e-02
4.348153e-03
1.574421e-03
5.189942e-04
1.516350e-04
4.689142e-05
1.948835e-05
1.186754e-05
7.784053e-06
4.188329e-06
2.314164e-06
1.146111e-06
4.182556e-07
8.498107e-08
4.432612e-08
2.277817e-08
1.194852e-08
5.709127e-09
2.130679e-09
9.710758e-10
5.296585e-10
2.927386e-10
2.362919e-10
1.442733e-10
6.828099e-11
3.193015e-11
1.521246e-11
6.039166e-12
9.639313e-13
2.046747e-13
1.239826e-13
1.034783e-13
6.709601e-14
3.238755e-14
1.497463e-14
6.902323e-15
2.678968e-15
4.399437e-16
5.396689e-17
3.258382e-17
1.539684e-17
4.137350e-18
3.570300e-18
1.356295e-18
5.682612e-19
3.280368e-19
1.000593e-19
6.412676e-20
1.000000e+00
1.000000e+00
1.000000e+00
1.000000e+00
1.000000e+00
1.000000e+00
1.000000e+00
1.000000e+00
1.000000e+00
1.000000e+00
1.000000e+00
1.000000e+00
1.000000e+00
9.999993e-01
9.999994e-01
9.999849e-01
9.999870e-01
9.993860e-01
9.993769e-01
9.979657e-01
9.905315e-01
9.730725e-01
9.372786e-01
8.797104e-01
7.715226e-01
6.918212e-01
5.232846e-01
4.222023e-01
2.585782e-01
1.840121e-01
1.048492e-01
5.702499e-02
2.785027e-02
1.221879e-02
4.840177e-03
1.748684e-03
5.796014e-04
1.837844e-04
6.083141e-05
2.373063e-05
1.247252e-05
7.692776e-06
3.598560e-06
1.673738e-06
1.071739e-06
6.601539e-07
3.305848e-07
1.670653e-07
8.577257e-08
4.347164e-08
2.154508e-08
1.118811e-08
4.606162e-09
9.717216e-10
2.491936e-10
1.438135e-10
6.383147e-11
2.423048e-11
1.448387e-11
1.164150e-11
8.160523e-12
3.124351e-12
5.207908e-13
7.974258e-14
5.437983e-14
1.705900e-14
1.462811e-14
6.763974e-15
5.351080e-15
3.391915e-15
1.617771e-15
7.366172e-16
3.342533e-16
1.536808e-16
6.978537e-17
3.208104e-17
1.435885e-17
6.994923e-18
2.181844e-18
2.918693e-19
1.000000e+00
1.000000e+00
1.000000e+00
1.000000e+00
1.000000e+00
1.000000e+00
1.000000e+00
1.000000e+00
1.000000e+00
1.000000e+00
1.000000e+00
1.000000e+00
1.000000e+00
9.999997e-01
9.999997e-01
9.999933e-01
9.999964e-01
9.997751e-01
9.995544e-01
9.994594e-01
9.969887e-01
9.892782e-01
9.704807e-01
9.338228e-01
8.783063e-01
7.662126e-01
6.869365e-01
5.219930e-01
4.232983e-01
2.619655e-01
1.899491e-01
1.067853e-01
5.993412e-02
3.037076e-02
1.380274e-02
5.618143e-03
2.049702e-03
6.784562e-04
2.131896e-04
7.068698e-05
2.657805e-05
1.326737e-05
9.540204e-06
4.302965e-06
1.348302e-06
6.363999e-07
3.059102e-07
1.457688e-07
7.444984e-08
4.279241e-08
2.135845e-08
1.114248e-08
8.883391e-09
5.649712e-09
2.842767e-09
1.335213e-09
6.630986e-10
2.825012e-10
5.737911e-11
1.002099e-11
7.885449e-12
6.293665e-12
3.940143e-12
1.894569e-12
8.862975e-13
4.390386e-13
1.653527e-13
3.008725e-14
3.155186e-15
2.836256e-15
1.547118e-15
5.430577e-16
2.907023e-16
7.741710e-17
5.175320e-17
1.988136e-17
1.453676e-17
7.001281e-18
5.565160e-18
2.852184e-18
1.000000e+00
1.000000e+00
1.000000e+00
1.000000e+00
1.000000e+00
1.000000e+00