# vtk DataFile Version 3.0
MUSCL
ASCII
DATASET STRUCTURED_POINTS
DIMENSIONS 80 80 1
ORIGIN 0 0 0
SPACING 0.0125 0.0125 1
POINT_DATA 6400
SCALARS Temperature double 1
LOOKUP_TABLE default
0.000000e+00
-6.740011e-01
-1.939397e-01
-2.456402e-02
-3.493952e-04
6.996343e-06
-1.456221e-06
-2.908669e-07
-2.195680e-07
-1.259206e-07
-5.571744e-08
-2.295105e-08
-9.595143e-09
-4.146559e-09
-1.907501e-09
-6.316029e-10
-1.219616e-11
3.173207e-12
2.564008e-12
1.031320e-12
3.913298e-13
1.652360e-13
7.083097e-14
2.816249e-14
1.015090e-14
3.334793e-15
1.024811e-15
3.141975e-16
1.111647e-16
3.908781e-17
3.224459e-18
-2.654360e-20
-1.145894e-19
-6.428786e-20
-3.847451e-20
-2.782969e-21
1.978409e-23
1.116743e-22
5.335928e-23
2.351114e-23
1.031529e-23
4.838153e-24
8.662963e-25
2.482079e-27
-6.075482e-27
-5.942345e-27
-3.238211e-27
-1.569675e-27
-7.151317e-28
-3.094529e-28
-1.295492e-28
-5.423170e-29
-2.515427e-29
-6.452241e-30
-2.521595e-30
8.325262e-32
6.200010e-32
5.313298e-32
3.515260e-32
2.193887e-32
1.312651e-32
7.681090e-33
5.071798e-33
1.310894e-33
-3.043860e-36
-8.879791e-36
-6.789275e-36
-1.471075e-36
2.221142e-38
2.435573e-38
1.305756e-38
4.072496e-38
6.276464e-38
5.204942e-38
2.494210e-38
1.069480e-38
4.084242e-39
1.420123e-39
4.463279e-40
1.872892e-40
1.325999e+00
6.740011e-01
1.939397e-01
2.456402e-02
3.493952e-04
-6.996343e-06
1.456221e-06
2.908669e-07
2.195680e-07
1.259206e-07
5.571744e-08
2.295105e-08
9.595143e-09
4.146559e-09
1.907501e-09
6.316029e-10
1.219616e-11
-3.173207e-12
-2.564008e-12
-1.031320e-12
-3.913298e-13
-1.652360e-13
-7.083097e-14
-2.816249e-14
-1.015090e-14
-3.334793e-15
-1.024811e-15
-3.141975e-16
-1.111647e-16
-3.908781e-17
-3.224459e-18
2.654360e-20
1.145894e-19
6.428786e-20
3.847451e-20
2.782969e-21
-1.978409e-23
-1.116743e-22
-5.335928e-23
-2.351114e-23
-1.031529e-23
-4.838153e-24
-8.662963e-25
-2.482079e-27
6.075482e-27
5.942345e-27
3.238211e-27
1.569675e-27
7.151317e-28
3.094529e-28
1.295492e-28
5.423170e-29
2.515427e-29
6.452241e-30
2.521595e-30
-8.325262e-32
-6.200010e-32
-5.313298e-32
-3.515260e-32
-2.193887e-32
-1.312651e-32
-7.681090e-33
-5.071798e-33
-1.310894e-33
3.043860e-36
8.879791e-36
6.789275e-36
1.471075e-36
-2.221142e-38
-2.435573e-38
-1.305756e-38
-4.072496e-38
-6.276464e-38
-5.204942e-38
-2.494210e-38
-1.069480e-38
-4.084242e-39
-1.420123e-39
-4.463279e-40
-1.872892e-40
1.041935e+00
9.580651e-01
5.984955e-01
2.397930e-01
5.880944e-02
3.804722e-03
-8.194106e-05
-4.673029e-05
-2.613649e-05
-1.185136e-05
-5.093538e-06
-2.200211e-06
-9.409090e-07
-2.540383e-07
-9.629252e-10
5.046755e-09
1.146838e-09
5.443787e-10
1.112146e-10
2.277326e-12
2.185668e-13
9.669402e-15
8.718481e-14
6.132709e-14
1.879938e-14
4.153093e-15
5.152606e-16
-6.789499e-17
-9.765833e-17
-5.728911e-17
-4.639587e-17
-2.804769e-17
-1.536779e-17
-7.361414e-18
-6.450539e-19
5.819217e-20
3.220482e-20
1.528899e-20
6.366514e-21
2.795403e-21
8.349830e-22
5.787989e-23
-8.441892e-24
-3.100397e-24
-1.478159e-24
-7.378524e-25
-3.458764e-25
-1.566021e-25
-7.008459e-26
-3.108114e-26
-1.382472e-26
-5.420712e-27
-8.752268e-28
-2.103569e-29
2.104612e-29
1.433058e-29
9.103097e-30
5.573488e-30
3.420572e-30
2.040836e-30
1.230847e-30
7.375000e-31
1.727757e-31
4.872608e-33
-3.172159e-33
-2.398633e-33
-6.530645e-34
9.766954e-37
4.319769e-36
2.979974e-36
1.717228e-36
1.882405e-36
1.826414e-36
1.134474e-36
5.940525e-37
2.716794e-37
1.109822e-37
4.142471e-38
1.416392e-38
5.536901e-39
9.998924e-01
1.000108e+00
8.872373e-01
5.936229e-01
2.706910e-01
8.391123e-02
1.597372e-02
1.251878e-03
4.786218e-04
2.004601e-04
7.269673e-05
8.427296e-06
-1.178509e-06
-9.040372e-07
-5.199351e-07
-1.966860e-07
-1.498620e-08
1.385895e-09
7.643776e-10
2.431088e-10
-1.338326e-12
-4.026301e-12
-1.908759e-12
-5.234428e-13
-1.516381e-13
-5.827088e-14
-2.487672e-14
-8.102002e-15
-1.884544e-15
-4.282495e-16
-1.059571e-16
-4.105017e-18
-1.052253e-17
-8.703854e-18
-7.661824e-18
-4.687977e-18
-2.210345e-18
-9.946603e-19
-2.946332e-19
-1.409951e-20
4.637499e-21
1.605757e-21
6.979056e-22
3.119077e-22
1.486840e-22
7.100220e-23
3.280763e-23
1.461037e-23
6.345748e-24
2.664987e-24
7.642909e-25
9.305953e-27
-4.760164e-27
-4.310103e-27
-2.086698e-27
-9.806349e-28
-5.489451e-28
-3.528688e-28
-2.279211e-28
-1.340035e-28
-7.283509e-29
-1.112058e-29
5.214488e-31
4.982003e-31
2.974631e-31
6.959445e-32
-1.020783e-33
-1.430932e-33
-8.538437e-34
-3.586181e-34
-1.365012e-34
-4.975692e-35
-1.880272e-35
-8.231642e-36
-4.184779e-36
-2.253896e-36
-1.190510e-36
-5.993360e-37
-2.776581e-37
-1.528848e-37
9.999117e-01
1.000088e+00
9.864395e-01
8.523977e-01
5.807754e-01
2.960929e-01
9.879683e-02
2.185311e-02
5.952891e-04
1.358675e-04
1.306928e-04
9.023608e-05
3.937775e-05
7.388262e-06
-4.246832e-07
-4.048380e-07
-2.712942e-07
-7.959707e-08
4.647324e-10
5.196692e-10
4.958966e-10
2.173863e-10
8.951373e-11
3.787698e-11
1.482752e-11
3.349586e-12
-1.484288e-14
-1.247180e-14
-3.029058e-15
-1.852088e-16
4.272301e-17
1.095790e-16
1.068324e-16
6.379957e-17
3.634886e-17
1.433556e-17
-7.607824e-19
-1.045983e-18
-8.924803e-19
-5.210883e-19
-2.369536e-19
-1.001638e-19
-4.267784e-20
-1.866582e-20
-8.407876e-21
-3.844946e-21
-1.772309e-21
-8.084044e-22
-3.236588e-22
-6.550012e-23
-1.651935e-24
1.075557e-24
6.425536e-25
2.527215e-25
9.130578e-26
3.015594e-26
8.675847e-27
2.144513e-27
4.672230e-29
-1.382926e-28
-1.229625e-28
-8.107336e-29
-5.734080e-29
-2.386303e-29
-5.683135e-30
-2.741543e-31
1.319682e-31
1.013051e-31
4.452374e-32
1.852608e-32
7.520637e-33
3.118082e-33
1.374006e-33
6.492659e-34
3.204619e-34
1.595315e-34
7.763851e-35
3.810418e-35
1.400339e-35
1.839987e-36
9.999686e-01
1.000031e+00
1.000323e+00
9.653216e-01
8.295518e-01
5.646135e-01
3.365965e-01
1.266830e-01
3.469528e-02
2.594746e-03
-5.557275e-05
6.630466e-05
6.206560e-05
4.393933e-05
1.956404e-05
3.472455e-06
-3.393679e-07
-2.434001e-07
-1.454206e-07
-6.208737e-08
-2.614341e-08
-1.104564e-08
-3.772972e-09
-4.437013e-10
1.886715e-11
1.481419e-11
4.868062e-12
3.448324e-13
-6.793173e-14
-2.279876e-14
-1.239502e-14
-4.945260e-15
-1.667052e-15
-4.906786e-16
-4.671664e-17
1.551094e-17
2.253860e-17
1.322203e-17
5.592976e-18
2.198728e-18
7.905435e-19
2.524142e-19
6.508485e-20
8.223499e-21
-4.737926e-21
-3.549873e-21
-1.336970e-21
-7.797812e-22
-2.671910e-22
-5.173377e-23
-9.614904e-23
-8.389312e-23
-3.668453e-23
-1.490927e-23
-5.827796e-24
-2.162498e-24
-5.074818e-25
-2.689618e-26
1.462519e-28
1.598651e-27
5.387478e-28
2.124008e-29
-1.614804e-29
-1.431863e-29
-2.768095e-30
1.511132e-31
-8.217059e-30
-4.711898e-30
-2.054177e-30
-8.862035e-31
-3.752286e-31
-1.574045e-31
-6.654214e-32
-2.884476e-32
-1.284842e-32
-6.065535e-33
-2.288486e-33
-1.550496e-34
2.793983e-35
1.671984e-35
9.999986e-01
1.000001e+00
1.000038e+00
9.984270e-01
9.484944e-01
8.111427e-01
5.427478e-01
3.576768e-01
1.478797e-01
5.001488e-02
9.763341e-03
3.893247e-04
-6.429364e-06
3.850979e-05
3.231059e-05
2.076684e-05
1.070319e-05
4.508806e-06
1.875745e-06
7.152194e-07
1.233165e-07
-7.922709e-09
-8.137455e-09
-4.893404e-09
-1.498229e-09
1.328767e-11
2.542572e-11
1.127325e-11
4.191777e-12
1.660624e-12
6.761032e-13
2.886289e-13
1.168324e-13
2.691710e-14
-2.738113e-16
-6.853048e-17
-2.384199e-17
-7.226720e-18
-2.423269e-18
-9.181783e-19
-4.863677e-19
-3.520061e-19
-2.619436e-19
-1.768741e-19
-1.051763e-19
-5.472040e-20
-2.472046e-20
-9.850126e-21
-3.951600e-21
-1.717217e-21
-5.281614e-22
-9.432059e-23
-2.886167e-23
-1.103099e-23
-4.455147e-24
-2.209956e-24
-1.830049e-24
-9.787607e-25
-3.775128e-25
-1.410495e-25
-5.092699e-26
-1.781743e-26
-5.854907e-27
-1.749620e-27
-4.984373e-28
-1.325530e-28
-5.688649e-30
1.909689e-30
2.411674e-31
-6.067241e-31
-4.654753e-33
3.474034e-32
-8.346495e-35
-1.201699e-32
-1.229894e-32
-5.977148e-33
-4.439947e-33
-3.053460e-33
-1.528505e-33
-6.239166e-34
1.000000e+00
1.000000e+00
1.000008e+00
1.000124e+00
9.919552e-01
9.348830e-01
7.950047e-01
5.168439e-01
3.729673e-01
1.554951e-01
5.845622e-02
1.593054e-02
2.168724e-03
4.175152e-05
2.518229e-05
1.918217e-05
1.034925e-05
4.167497e-06
1.937977e-06
1.115837e-06
8.005548e-07
3.341821e-07
4.652444e-08
-4.095553e-09
-4.191388e-09
-2.549078e-09
-1.059358e-09
-4.496966e-10
-1.935319e-10
-8.538573e-11
-3.573855e-11
-7.742022e-12
2.059991e-13
9.964934e-14
6.348058e-14
3.045518e-14
1.397288e-14
6.307089e-15
2.815651e-15
1.242914e-15
5.428257e-16
2.321952e-16
9.934459e-17
2.971002e-17
6.081219e-18
1.966891e-18
5.195938e-19
6.218306e-20
-4.460871e-21
-2.220114e-21
-1.623129e-21
-9.180706e-22
-4.558675e-22
-2.335410e-22
-1.027400e-22
-1.787939e-23
-1.625598e-24
-7.756511e-25
-2.671855e-25
1.318817e-26
1.128283e-26
4.690506e-27
7.320826e-28
1.885434e-28
2.361471e-28
3.710260e-29
-3.476095e-28
-2.578476e-28
-1.149525e-28
-4.882426e-29
-2.030595e-29
-8.437929e-30
-3.542993e-30
-1.548328e-30
-6.973513e-31
-1.583686e-31
-1.798382e-33
-2.970796e-33
-1.085168e-33
2.504187e-34
9.999997e-01
1.000000e+00
9.999995e-01
1.000035e+00
1.000037e+00
9.851496e-01
9.218127e-01
7.794896e-01
5.212814e-01
3.783940e-01
1.649478e-01
6.666010e-02
2.054684e-02
4.351887e-03
3.826671e-04
7.697317e-05
4.475841e-05
2.487007e-05
9.303444e-06
1.957545e-06
8.003526e-07
6.400119e-07
3.936568e-07
1.958861e-07
8.368986e-08
3.583393e-08
1.521336e-08
6.594599e-09
1.892880e-09
-5.313716e-11
-4.879408e-11
-3.563816e-11
-1.833015e-11
-8.210504e-12
-3.622164e-12
-1.578889e-12
-6.830291e-13
-2.946021e-13
-1.276134e-13
-5.100638e-14
-1.228862e-14
-6.426991e-17
1.246142e-16
8.616369e-17
3.240565e-17
3.570676e-18
5.659405e-19
3.668783e-19
1.445621e-19
3.233008e-20
7.306416e-21
2.224626e-21
6.621561e-22
8.461843e-23
-7.338886e-23
-9.763703e-23
-6.408656e-23
-2.117329e-23
-6.532510e-24
-4.333665e-24
-2.492398e-24
-1.066302e-24
-3.944366e-25
-1.297468e-25
-3.854833e-26
-3.787267e-27
1.473668e-28
-1.585318e-28
-3.332856e-29
1.782780e-30
-1.513140e-30
-4.903611e-30
-2.537873e-30
-8.861288e-31
-6.429397e-31
-5.512880e-31
-3.336498e-31
-1.595893e-31
-7.374821e-32
-3.623136e-32
9.999997e-01
1.000000e+00
1.000000e+00
1.000013e+00
1.000024e+00
9.989153e-01
9.786671e-01
9.079617e-01
7.698277e-01
5.221182e-01
3.809663e-01
1.771859e-01
7.576408e-02
2.543862e-02
5.903586e-03
4.376224e-04
4.156935e-05
2.797889e-05
2.323941e-05
1.292880e-05
3.540640e-06
6.702182e-07
3.838024e-07
2.001467e-07
8.067894e-08
3.490915e-08
1.483091e-08
7.377422e-09
5.406992e-09
3.025311e-09
1.261746e-09
5.164555e-10
2.092384e-10
8.464121e-11
3.428433e-11
1.382422e-11
5.798670e-12
1.596771e-12
-8.486014e-14
-7.843672e-14
-5.373450e-14
-2.663566e-14
-4.664017e-15
1.493489e-16
7.786397e-17
3.902307e-17
5.076832e-18
-3.845350e-19
-8.882472e-20
-6.787482e-20
-3.520391e-20
-1.443734e-20
-4.264936e-21
4.973844e-23
-3.381133e-23
-9.631327e-23
-8.754710e-23
-6.122901e-23
-3.673351e-23
-1.082493e-23
-2.645870e-24
-1.087223e-24
-2.917008e-25
-9.829424e-26
-3.719872e-26
-3.143983e-26
-2.285260e-26
-1.165645e-26
-5.353495e-27
-2.163794e-27
-8.180267e-28
-2.950429e-28
-1.163205e-28
-3.908330e-29
-4.406717e-30
-2.698196e-31
-2.938041e-31
-1.030287e-31
-2.492827e-32
-2.649158e-32
9.999999e-01
1.000000e+00
1.000000e+00
1.000002e+00
1.000015e+00
1.000016e+00
9.972580e-01
9.709940e-01
8.969375e-01
7.615339e-01
5.235863e-01
3.740983e-01
1.875401e-01
8.582952e-02
3.197023e-02
8.884979e-03
1.203794e-03
5.555830e-05
2.334102e-05
2.071461e-05
1.515730e-05
6.500578e-06
1.811112e-06
8.698445e-07
4.884813e-07
2.413277e-07
9.014653e-08
1.569337e-08
5.214068e-09
2.601074e-09
8.424558e-10
4.751324e-10
2.107480e-10
4.109608e-11
2.012966e-11
1.237981e-11
5.451650e-12
4.419249e-12
2.442909e-12
5.606219e-13
-4.719580e-14
-4.197150e-14
-2.967834e-14
-1.148993e-14
-1.321360e-15
4.171218e-17
5.430772e-17
3.030325e-17
1.353982e-17
5.882448e-18
1.330884e-18
8.120283e-21
-1.023355e-20
-8.033481e-21
-2.579736e-21
-4.975612e-22
-3.530923e-23
-4.464452e-23
-3.313482e-23
-3.576380e-23
-2.573753e-23
-1.221419e-23
-5.921535e-24
-1.945687e-24
-1.968332e-25
-1.156273e-26
-2.222911e-26
-8.990708e-27
-4.926224e-27
-1.535429e-27
-8.435009e-28
-2.916266e-28
-1.094684e-28
-7.477514e-29
-4.565737e-29
-2.063440e-29
-9.420383e-30
-4.512129e-30
-1.730282e-30
-2.567732e-31
9.999999e-01
1.000000e+00
1.000000e+00
1.000000e+00
1.000007e+00
1.000008e+00
9.999884e-01
9.941537e-01
9.638505e-01
8.861086e-01
7.588343e-01
5.118994e-01
3.893500e-01
1.921243e-01
9.238259e-02
3.718680e-02
1.167033e-02
2.312929e-03
5.902746e-05
1.668949e-05
1.551189e-05
1.281478e-05
6.493825e-06
1.571375e-06
4.527623e-07
3.289255e-07
2.363955e-07
1.453957e-07
6.931342e-08
3.265528e-08
1.585469e-08
7.169502e-09
3.331067e-09
1.500775e-09
6.989693e-10
2.253011e-10
2.627986e-11
4.437844e-12
3.092213e-12
2.349171e-12
1.148417e-12
2.463112e-13
-3.014553e-14
-2.324344e-14
-1.449958e-14
-6.918370e-15
-3.101283e-15
-8.330715e-16
-1.839214e-18
7.004858e-18
5.877358e-18
3.245397e-18
1.063742e-18
1.016796e-19
-1.693822e-20
-5.706046e-21
-3.104721e-21
-1.163091e-21
-9.389817e-23
-3.569095e-23
-1.791373e-23
-9.940147e-24
-5.325655e-24
-4.437801e-24
-2.571945e-24
-1.115606e-24
-5.030395e-25
-2.347738e-25
-1.042205e-25
-4.447764e-26
-2.060670e-26
-6.734258e-27
-1.097849e-27
-9.838135e-29
-3.745530e-29
-1.457757e-29
-9.360727e-30
-4.424111e-30
-3.568332e-30
-2.000806e-30
1.000000e+00
1.000000e+00
1.000000e+00
1.000000e+00
1.000002e+00
1.000006e+00
1.000007e+00
9.997445e-01
9.914420e-01
9.548305e-01
8.817542e-01
7.454384e-01
5.159496e-01
3.938240e-01
1.986396e-01
9.889758e-02
4.197558e-02
1.452852e-02
3.626236e-03
3.402478e-04
1.386415e-05
1.609460e-05
1.300152e-05
9.288114e-06
3.374906e-06
5.049302e-07
1.856506e-07
1.022638e-07
6.960502e-08
3.065164e-08
1.365060e-08
7.043920e-09
2.895284e-09
1.436758e-09
7.020712e-10
5.673886e-10
3.181400e-10
8.288805e-11
4.434901e-12
1.242926e-12
1.608795e-12
1.167757e-12
5.996551e-13
2.529769e-13
7.990315e-14
1.983104e-15
-3.730751e-15
-2.782599e-15
-1.533105e-15
-6.804068e-16
-1.989963e-16
-3.529964e-18
2.046023e-18
1.767936e-18
8.543019e-19
3.400068e-19
2.715579e-20
-3.787628e-21
-1.962191e-21
-9.502850e-22
-4.302517e-22
-1.756485e-22
-3.592930e-23
-3.429171e-24
-2.619451e-24
-9.982523e-25
-1.927407e-25
-1.467598e-25
-9.426187e-26
-3.268068e-26
-2.538829e-26
-1.402834e-26
-7.887091e-27
-3.392626e-27
-1.379350e-27
-6.060484e-28
-2.182658e-28
-2.941864e-29
-6.058807e-31
-1.243025e-30
1.000000e+00
1.000000e+00
1.000000e+00
1.000000e+00
1.000000e+00
1.000002e+00
1.000007e+00
9.999024e-01
9.998589e-01
9.863605e-01
9.508718e-01
8.715848e-01
7.384930e-01
5.161777e-01
3.972159e-01
2.051885e-01
1.051912e-01
4.638503e-02
1.745282e-02
5.012577e-03
5.926586e-04
6.145445e-06
6.895302e-06
9.124883e-06
7.993051e-06
5.028968e-06
2.444553e-06
1.208869e-06
5.965876e-07
2.852016e-07
1.393158e-07
6.654515e-08
3.342502e-08
1.186252e-08
2.260235e-09
5.889764e-10
4.536295e-10
3.411931e-10
1.569352e-10
3.460599e-11
2.560531e-13
8.993700e-14
4.710026e-13
2.326568e-13
1.795725e-13
1.056447e-13
4.734165e-14
1.903918e-14
4.871607e-15
-6.561715e-16
-5.548674e-16
-3.206318e-16
-1.463437e-16
-4.176759e-17
-1.651594e-19
4.924431e-19
3.705198e-19
1.777815e-19
7.460454e-20
1.521589e-20
-4.936867e-22
-2.903692e-22
-2.061004e-22
-9.549341e-23
-4.405772e-23
-1.935848e-23
-8.958689e-24
-3.987310e-24
-1.610305e-24
-4.437682e-25
-2.542674e-26
-1.164770e-26
-8.118742e-27
-5.989390e-28
-1.220888e-27
-5.601599e-28
-4.524957e-28
-2.984203e-28
-1.187135e-28
-2.724926e-29
1.000000e+00
1.000000e+00
1.000000e+00
1.000000e+00
1.000000e+00
1.000000e+00
1.000004e+00
9.999618e-01
1.000033e+00
9.976849e-01
9.838747e-01
9.447309e-01
8.635104e-01
7.326601e-01
5.157850e-01
4.002248e-01
2.115834e-01
1.117110e-01
5.056151e-02
2.040212e-02
7.036433e-03
1.704600e-03
2.194492e-04
7.712255e-06
7.375415e-06
1.184990e-06
1.050225e-06
7.172086e-07
4.456261e-07
5.560231e-08
6.216252e-08
5.564246e-08
3.351792e-08
2.711648e-08
1.603649e-08
5.088509e-09
4.857427e-10
3.439857e-10
2.651867e-10
1.779361e-10
8.834484e-11
3.979330e-11
1.465281e-11
2.270437e-12
3.100689e-14
9.631752e-14
3.493443e-14
1.788474e-14
1.375891e-14
8.002137e-15
2.877326e-15
2.960644e-16
-1.377802e-16
-1.270103e-16
-7.272232e-17
-3.278642e-17
-8.885010e-18
1.818726e-19
1.123003e-19
8.389510e-20
4.184548e-20
1.809625e-20
7.702917e-21
3.283963e-21
1.431723e-21
5.145618e-22
1.017916e-22
-3.466974e-24
-3.023630e-24
-1.867301e-24
-9.780178e-25
-4.115745e-25
-1.846047e-25
-7.798735e-26
-2.848118e-26
-4.478526e-27
-9.071895e-29
-2.316487e-28
-2.233439e-28
-1.306181e-28
1.000000e+00
1.000000e+00
1.000000e+00
1.000000e+00
1.000000e+00
1.000000e+00
1.000002e+00
9.999850e-01
9.999953e-01
9.999716e-01
9.962670e-01
9.802813e-01
9.387318e-01
8.559492e-01
7.276920e-01
5.150225e-01
4.023010e-01
2.167285e-01
1.189845e-01
5.370334e-02
2.138837e-02
7.337651e-03
2.234944e-03
6.974128e-04
3.075488e-04
1.383832e-04
6.183918e-05
2.764327e-05
1.254420e-05
5.796760e-06
2.722558e-06
8.769804e-07
1.170048e-07
2.763228e-08
2.114707e-08
1.614216e-08
8.403547e-09
2.270695e-09
2.808490e-10
1.003414e-10
7.332988e-11
3.717667e-11
3.042494e-11
1.895272e-11
8.643056e-12
3.896528e-12
1.319591e-12
1.125235e-13
1.574150e-14
6.279386e-15
4.468344e-15
3.028219e-15
1.561065e-15
5.292154e-16
-5.344960e-18
-3.404974e-17
-2.927676e-17
-1.623205e-17
-7.076623e-18
-3.052269e-18
-1.320650e-18
-5.709724e-19
-2.537691e-19
-7.903769e-20
-5.497905e-21
5.208817e-22
6.440403e-22
3.482791e-22
1.490381e-22
6.334145e-23
2.669177e-23
1.070947e-23
2.288436e-24
-2.536242e-26
-5.189682e-26
-3.512784e-26
-1.538818e-26
-2.787651e-27
-1.155290e-28
-7.907928e-29
1.000000e+00
1.000000e+00
1.000000e+00
1.000000e+00
1.000000e+00
1.000000e+00
1.000001e+00
9.999939e-01
9.999933e-01
9.999978e-01
9.996932e-01
9.948135e-01
9.764594e-01
9.335165e-01
8.476509e-01
7.250344e-01
5.158618e-01
4.044789e-01
2.192310e-01
1.311650e-01
6.151326e-02
2.463272e-02
8.077852e-03
1.870635e-03
3.204636e-04
1.297758e-04
6.175669e-05
2.397659e-05
1.124205e-05
5.892643e-06
2.760223e-06
2.254077e-06
1.241569e-06
3.318893e-07
2.023675e-08
1.245676e-08
1.214786e-08
8.823008e-09
4.643024e-09
2.215064e-09
8.737447e-10
1.770853e-10
1.972051e-11
1.535111e-11
5.209804e-12
3.672746e-12
3.109779e-12
1.882048e-12
8.471404e-13
1.911238e-13
6.537083e-15
3.099627e-15
1.566484e-15
1.071924e-15
6.480733e-16
2.887281e-16
1.158378e-16
4.250419e-17
1.449740e-17
4.263773e-18
8.689952e-19
-1.183622e-19
-2.349501e-19
-2.045498e-19
-1.214909e-19
-5.513797e-20
-2.402876e-20
-1.014524e-20
-4.282379e-21
-1.516314e-21
-2.113230e-22
1.663513e-23
1.021286e-23
5.697675e-24
1.587303e-24
-2.155483e-26
-2.075226e-26
-1.609835e-26
-7.758766e-27
-3.647752e-27
1.000000e+00
1.000000e+00
1.000000e+00
1.000000e+00
1.000000e+00
1.000000e+00
1.000000e+00
9.999986e-01
9.999949e-01
9.999963e-01
9.999900e-01
9.992941e-01
9.930167e-01
9.724347e-01
9.302315e-01
8.319277e-01
7.228887e-01
5.195287e-01
4.071415e-01
2.223065e-01
1.368300e-01
6.859058e-02
3.014737e-02
1.135252e-02
3.523257e-03
9.545662e-04
4.511054e-04
2.243738e-04
1.150226e-04
4.264306e-05
8.287613e-06
2.280491e-06
1.853962e-06
1.353307e-06
6.178448e-07
1.352184e-07
1.279989e-08
6.881792e-09
2.210706e-09
2.165530e-09
1.712031e-09
1.085549e-09
5.315578e-10
2.548079e-10
9.076596e-11
1.227852e-11
1.495004e-12
1.297011e-12
9.815967e-13
7.393222e-13
3.875154e-13
1.468982e-13
1.880093e-14
1.575950e-16
3.952997e-16
1.673203e-16
1.049165e-16
-8.596507e-17
6.368786e-18
-1.041024e-17
-8.263291e-18
-1.117525e-18
-2.562360e-19
-1.710225e-19
-1.184794e-19
-4.552278e-20
-2.362437e-20
-9.913945e-21
-3.579518e-21
-2.960036e-21
-1.799955e-21
-7.959104e-22
-1.603326e-22
6.516539e-24
4.590579e-24
2.992165e-24
1.325125e-24
5.800961e-25
2.410909e-25
7.353619e-26
1.000000e+00
1.000000e+00
1.000000e+00
1.000000e+00
1.000000e+00
1.000000e+00
1.000000e+00
1.000000e+00
9.999974e-01
9.999964e-01
9.999969e-01
9.999477e-01
9.990102e-01
9.902269e-01
9.711960e-01
9.210290e-01
8.231961e-01
7.196052e-01
5.218835e-01
4.078829e-01
2.281280e-01
1.366163e-01
6.949023e-02
3.124063e-02
1.173476e-02
3.373503e-03
5.551554e-04
2.081565e-04
1.196044e-04
9.805883e-05
5.578163e-05
1.622787e-05
1.982165e-06
1.349817e-06
1.043353e-06
6.847835e-07
3.482975e-07
1.578108e-07
6.157559e-08
1.022191e-08
1.093246e-09
4.518063e-10
4.583453e-10
2.602451e-10
2.065192e-10
1.260139e-10
6.075738e-11
2.032393e-11
1.842403e-12
5.576116e-13
3.744570e-13
2.957795e-13
1.891969e-13
8.785330e-14
3.898110e-14
1.746237e-14
7.732579e-15
3.439789e-15
1.483524e-15
6.987675e-16
2.274548e-16
1.000642e-17
-2.538180e-18
-1.245396e-18
-7.635473e-19
-4.273061e-19
-2.218594e-19
-1.047749e-19
-3.320156e-20
-3.433207e-21
-1.491608e-21
-1.205532e-21
-8.085616e-22
-4.160010e-22
-1.791312e-22
-7.813524e-23
-2.935275e-23
-4.582945e-24
3.632298e-25
1.855093e-25
1.000000e+00
1.000000e+00
1.000000e+00
1.000000e+00
1.000000e+00
1.000000e+00
1.000000e+00
1.000000e+00
9.999995e-01
9.999974e-01
9.999974e-01
9.999763e-01
9.999951e-01
9.975742e-01
9.897023e-01
9.672043e-01
9.135230e-01
8.160787e-01
7.166775e-01
5.215481e-01
4.108003e-01
2.332181e-01
1.463397e-01
7.661087e-02
3.642718e-02
1.520637e-02
5.240810e-03
1.325076e-03
2.959705e-04
9.778843e-05
8.101401e-05
6.268166e-05
3.036727e-05
8.157478e-06
1.104368e-06
4.832649e-07
3.515489e-07
1.589812e-07
1.220235e-07
7.951767e-08
3.850821e-08
1.880984e-08
6.382255e-09
8.639515e-10
1.156023e-10
8.264708e-11
6.235723e-11
5.180318e-11
3.175473e-11
1.203311e-11
2.058817e-12
2.714670e-13
1.532375e-13
3.565570e-14
3.045674e-14
1.394828e-14
7.968280e-15
2.050014e-15
9.658137e-16
7.034857e-16
5.481521e-16
3.217126e-16
1.484236e-16
6.312899e-17
2.723670e-17
9.401811e-18
8.726431e-19
-9.437690e-20
-1.060377e-19
-6.192183e-20
-1.765383e-20
-1.027190e-21
-3.480229e-22
-2.682397e-22
-4.248899e-23
-5.092119e-23
-5.251361e-23
-3.532468e-23
-1.747329e-23
-7.538631e-24
1.000000e+00
1.000000e+00
1.000000e+00
1.000000e+00
1.000000e+00
1.000000e+00
1.000000e+00
1.000000e+00
1.000000e+00
9.999986e-01
9.999988e-01
9.999878e-01
9.999889e-01
9.996347e-01
9.969679e-01
9.879840e-01
9.630017e-01
9.062534e-01
8.112723e-01
7.119939e-01
5.210883e-01
4.143901e-01
2.385680e-01
1.469077e-01
7.671816e-02
3.694241e-02
1.601881e-02
5.921869e-03
1.813744e-03
4.339933e-04
9.461253e-05
6.261996e-05
4.777633e-05
3.193247e-05
1.562153e-05
6.005197e-06
2.618910e-06
7.452437e-07
1.157914e-07
6.555479e-08
3.776203e-08
1.863346e-08
1.514262e-08
9.186635e-09
4.419724e-09
1.480471e-09
1.547376e-10
5.033326e-11
3.217907e-11
2.429112e-11
1.513146e-11
7.138876e-12
3.201804e-12
1.489779e-12
6.921457e-13
3.130119e-13
1.449963e-13
6.946710e-14
2.327506e-14
2.457386e-15
3.370522e-16
2.770549e-16
1.046612e-16
4.795032e-17
2.291929e-17
1.971209e-17
1.218381e-17
4.740632e-18
5.597419e-19
-5.191740e-20
-5.598678e-20
-3.297943e-20
-1.484678e-20
-6.981972e-21
-3.195055e-21
-8.065228e-22
-6.053084e-23
-2.639860e-23
-1.491520e-23
-6.460662e-24
1.000000e+00
1.000000e+00
1.000000e+00
1.000000e+00
1.000000e+00
1.000000e+00
1.000000e+00
1.000000e+00
1.000000e+00
9.999994e-01
9.999995e-01
9.999942e-01
9.999918e-01
9.999861e-01
9.993544e-01
9.962259e-01
9.860087e-01
9.586293e-01
8.993340e-01
8.088554e-01
7.067380e-01
5.196907e-01
4.154628e-01
2.429439e-01
1.590912e-01
8.337954e-02
4.025545e-02
1.763858e-02
6.891483e-03
2.337504e-03
6.673359e-04
1.652714e-04
6.140770e-05
3.833927e-05
2.416758e-05
1.130667e-05
4.346646e-06
2.737985e-06
1.490043e-06
7.235471e-07
2.918301e-07
6.756519e-08
1.144083e-08
9.236665e-09
4.612426e-09
3.593252e-09
2.193389e-09
8.266264e-10
1.483864e-10
1.294312e-11
9.544633e-12
4.927023e-12
3.126714e-12
1.497454e-12
3.911383e-13
1.915708e-13
1.106660e-13
7.034957e-14
5.700221e-14
3.413609e-14
1.537521e-14
6.864013e-15
3.258640e-15
1.248981e-15
1.751476e-16
1.479523e-17
1.177581e-17
9.466840e-18
5.743541e-18
2.782999e-18
1.116278e-18
4.676665e-19
1.339557e-19
-2.774465e-21
-3.533394e-21
-3.084397e-21
-1.653406e-21
-7.577619e-22
-3.537433e-22
-1.415324e-22
1.000000e+00
1.000000e+00
1.000000e+00
1.000000e+00
1.000000e+00
1.000000e+00
1.000000e+00
1.000000e+00
1.000000e+00
9.999998e-01
9.999998e-01
9.999983e-01
9.999940e-01
9.999942e-01
9.999375e-01
9.991197e-01
9.953401e-01
9.838123e-01
9.547027e-01
8.884878e-01
8.115121e-01
7.049240e-01
5.184831e-01
4.165110e-01
2.444421e-01
1.648810e-01
8.847648e-02
4.338608e-02
1.931039e-02
7.739570e-03
2.739076e-03
8.314868e-04
2.285613e-04
7.767730e-05
4.356439e-05
2.861942e-05
1.339186e-05
3.381742e-06
1.395194e-06
7.095686e-07
5.660904e-07
3.664239e-07
1.968584e-07
7.333819e-08
1.194586e-08
2.648655e-09
2.069968e-09
1.675945e-09
1.058448e-09
5.067864e-10
2.290457e-10
1.055995e-10
4.893044e-11
2.248871e-11
1.036273e-11
4.996443e-12
1.690122e-12
2.063174e-13
5.377788e-14
1.178510e-14
1.066050e-14
6.300946e-15
3.089372e-15
2.371663e-15
1.661794e-15
5.835339e-16
7.267073e-17
3.839969e-18
4.044208e-18
2.794578e-18
3.895742e-19
4.417391e-19
3.588539e-19
2.017571e-19
8.405671e-20
3.410288e-20
1.356549e-20
5.302423e-21
2.013989e-21
7.759511e-22
1.000000e+00
1.000000e+00
1.000000e+00
1.000000e+00
1.000000e+00
1.000000e+00
1.000000e+00
1.000000e+00
1.000000e+00
9.999999e-01
9.999998e-01
9.999998e-01
9.999970e-01
9.999956e-01
9.999972e-01
9.998399e-01
9.989933e-01
9.937499e-01
9.846678e-01
9.404028e-01
8.938354e-01
7.990045e-01
7.032653e-01
5.214306e-01
4.170577e-01
2.477714e-01
1.704369e-01
9.362011e-02
4.703563e-02
2.141871e-02
8.821007e-03
3.230436e-03
1.022664e-03
2.773265e-04
7.703708e-05
3.975751e-05
3.029879e-05
1.997568e-05
9.276641e-06
2.979592e-06
5.817079e-07
3.284901e-07
1.996613e-07
1.613297e-07
1.017610e-07
4.395493e-08
9.431295e-09
1.579454e-09
6.559590e-10
4.933278e-10
2.082555e-10
1.047662e-10
3.845498e-11
1.663560e-11
8.093934e-12
5.070462e-12
3.981173e-12
2.404949e-12
1.110084e-12
5.290420e-13
2.464983e-13
9.354440e-14
1.529427e-14
1.843370e-15
1.616373e-15
1.268536e-15
7.779941e-16
3.581355e-16
1.589624e-16
7.567507e-17
2.441666e-17
2.232605e-18
-1.792622e-20
1.760728e-19
6.993847e-20
1.806390e-20
4.169239e-21
8.501301e-23
5.040145e-22
6.166835e-22
1.000000e+00
1.000000e+00
1.000000e+00
1.000000e+00
1.000000e+00
1.000000e+00
1.000000e+00
1.000000e+00
1.000000e+00
1.000000e+00
9.999999e-01
9.999999e-01
9.999992e-01
9.999967e-01
9.999971e-01
9.999282e-01
9.999362e-01
9.970044e-01
9.967805e-01
9.754840e-01
9.436144e-01
8.871723e-01
7.906850e-01
7.010213e-01
5.218707e-01
4.173370e-01
2.502490e-01
1.743303e-01
9.758531e-02
5.028282e-02
2.346631e-02
9.954723e-03
3.818486e-03
1.297743e-03
3.762712e-04
8.727101e-05
3.120935e-05
2.010879e-05
1.469734e-05
9.824171e-06
5.087634e-06
1.902561e-06
5.400239e-07
1.503609e-07
9.856451e-08
7.904854e-08
5.061681e-08
2.498290e-08
1.199628e-08
5.583933e-09
2.595860e-09
1.232384e-09
5.732964e-10
2.823472e-10
1.003087e-10
1.498540e-11
2.487961e-12
2.370589e-12
9.769472e-13
5.436206e-13
2.529820e-13
1.895070e-13
1.245502e-13
4.991711e-14
9.052043e-15
1.296395e-15
3.232463e-16
3.148222e-16
1.479074e-16
7.478178e-17
5.740164e-17
3.425023e-17
1.540807e-17
6.741660e-18
2.978668e-18
1.318091e-18
5.792137e-19
2.537808e-19
1.121160e-19
4.913123e-20
1.000000e+00
1.000000e+00
1.000000e+00
1.000000e+00
1.000000e+00
1.000000e+00
1.000000e+00
1.000000e+00
1.000000e+00
1.000000e+00
1.000000e+00
9.999999e-01
9.999999e-01
9.999983e-01
9.999991e-01
9.999670e-01
9.999666e-01
9.986226e-01
9.986541e-01
9.924911e-01
9.748564e-01
9.411750e-01
8.823038e-01
7.836470e-01
6.994146e-01
5.243961e-01
4.205593e-01
2.545469e-01
1.789774e-01
1.014029e-01
5.352581e-02
2.547647e-02
1.100501e-02
4.344210e-03
1.573949e-03
5.199601e-04
1.526277e-04
4.692774e-05
1.950022e-05
1.195662e-05
7.911029e-06
4.284792e-06
2.375294e-06
1.170073e-06
4.285919e-07
7.902331e-08
4.510729e-08
2.488399e-08
1.007208e-08
5.086304e-09
2.495281e-09
1.261325e-09
4.741231e-10
2.742344e-10
2.310864e-10
1.431914e-10
6.761139e-11
3.113833e-11
1.484291e-11
6.121187e-12
1.011171e-12
1.601113e-13
1.179155e-13
9.725763e-14
6.200371e-14
3.088175e-14
1.388675e-14
6.562100e-15
2.208181e-15
2.406670e-16
5.650672e-17
9.144686e-18
1.124381e-17
4.468542e-18
2.225602e-18
9.992896e-19
1.078876e-19
2.254878e-19
9.092626e-20
4.638802e-20
1.000000e+00
1.000000e+00
1.000000e+00
1.000000e+00
1.000000e+00
1.000000e+00
1.000000e+00
1.000000e+00
1.000000e+00
1.000000e+00
1.000000e+00
1.000000e+00
1.000000e+00
9.999992e-01
9.999994e-01
9.999853e-01
1.000010e+00
9.993920e-01
9.993792e-01
9.979716e-01
9.905005e-01
9.730324e-01
9.372583e-01
8.797053e-01
7.715112e-01
6.917971e-01
5.232416e-01
4.221560e-01
2.585370e-01
1.839782e-01
1.048198e-01
5.700079e-02
2.783392e-02
1.221170e-02
4.839906e-03
1.751588e-03
5.826860e-04
1.855968e-04
6.183138e-05
2.423604e-05
1.272861e-05
7.840545e-06
3.681386e-06
1.734581e-06
1.128620e-06
6.825614e-07
3.394814e-07
1.689933e-07
8.582827e-08
4.296269e-08
2.123255e-08
1.083421e-08
4.406887e-09
9.938265e-10
1.852068e-10
1.112929e-10
5.802376e-11
2.564666e-11
1.274054e-11
1.083964e-11
7.730151e-12
2.934008e-12
5.106336e-13
7.089755e-14
3.490495e-14
1.835555e-14
1.357805e-14
6.544926e-15
5.336625e-15
3.255548e-15
1.465417e-15
6.674937e-16
3.050959e-16
1.346562e-16
6.077103e-17
2.763326e-17
1.261789e-17
5.888936e-18
1.936475e-18
2.644944e-19
1.000000e+00
1.000000e+00
1.000000e+00
1.000000e+00
1.000000e+00
1.000000e+00
1.000000e+00
1.000000e+00
1.000000e+00
1.000000e+00
1.000000e+00
1.000000e+00
1.000000e+00
9.999997e-01
9.999997e-01
9.999932e-01
1.000003e+00
9.997697e-01
9.995558e-01
9.994680e-01
9.969773e-01
9.892550e-01
9.704634e-01
9.338155e-01
8.783023e-01
7.662015e-01
6.869176e-01
5.219616e-01
4.232673e-01
2.619358e-01
1.899210e-01
1.067576e-01
5.991254e-02
3.035967e-02
1.380201e-02
5.623242e-03
2.056285e-03
6.838153e-04
2.166312e-04
7.257024e-05
2.750492e-05
1.369781e-05
9.860594e-06
4.433643e-06
1.379810e-06
6.539427e-07
3.453205e-07
1.628476e-07
7.598693e-08
4.086735e-08
2.146138e-08
1.094804e-08
8.675068e-09
5.524704e-09
2.774059e-09
1.314436e-09
6.501881e-10
2.971856e-10
8.726991e-11
1.119340e-11
7.809676e-12
6.132752e-12
3.868688e-12
1.837932e-12
8.616713e-13
4.319879e-13
1.497386e-13
2.003051e-14
4.482203e-15
3.309616e-15
1.016870e-15
4.714686e-16
2.248766e-16
1.105655e-16
5.748157e-17
1.300787e-17
8.651604e-18
5.779585e-18
4.797256e-18
2.405116e-18
1.000000e+00
1.000000e+00
1.000000e+00
1.000000e+00
1.000000e+00