# vtk DataFile Version 3.0
MUSCL
ASCII
DATASET STRUCTURED_POINTS
DIMENSIONS 80 80 1
ORIGIN 0 0 0
SPACING 0.0125 0.0125 1
POINT_DATA 6400
SCALARS Temperature double 1
LOOKUP_TABLE default
0.000000e+00
-6.739984e-01
-1.939468e-01
-2.456921e-02
-3.493139e-04
2.672618e-05
1.149927e-06
-4.301592e-07
-3.108766e-07
-1.224554e-07
-4.866830e-08
-1.962333e-08
-7.807069e-09
-3.137345e-09
-1.076398e-09
-4.447675e-10
-8.072163e-11
-5.562109e-14
4.942076e-14
-8.361476e-16
3.325915e-15
8.008252e-15
1.011471e-14
9.245039e-15
5.165981e-15
2.695875e-15
1.318993e-15
6.122031e-16
2.738723e-16
1.179700e-16
4.665050e-17
1.646020e-17
4.981019e-18
1.188165e-18
2.774016e-19
1.038522e-19
5.549849e-20
2.931943e-20
9.764090e-21
1.853239e-22
-2.166049e-23
-2.533109e-23
-9.015456e-24
-2.692991e-24
-8.988389e-25
-3.348361e-25
-1.321810e-25
-5.438685e-26
-2.334516e-26
-1.032384e-26
-4.575077e-27
-1.974788e-27
-8.128570e-28
-3.265103e-28
-6.268999e-29
-4.960006e-31
1.588208e-31
1.007446e-31
4.596362e-32
1.674771e-32
5.214204e-33
1.518590e-33
4.472513e-34
1.424239e-34
4.977467e-35
1.608851e-35
2.329180e-36
-4.617256e-38
-4.706382e-38
-2.693356e-38
-1.511433e-38
-8.874556e-39
-4.816207e-39
-2.315948e-39
-9.966946e-40
-4.375029e-40
-1.819298e-40
-5.452283e-41
-6.816209e-43
7.104137e-43
1.326002e+00
6.739984e-01
1.939468e-01
2.456921e-02
3.493139e-04
-2.672618e-05
-1.149927e-06
4.301592e-07
3.108766e-07
1.224554e-07
4.866830e-08
1.962333e-08
7.807069e-09
3.137345e-09
1.076398e-09
4.447675e-10
8.072163e-11
5.562109e-14
-4.942076e-14
8.361476e-16
-3.325915e-15
-8.008252e-15
-1.011471e-14
-9.245039e-15
-5.165981e-15
-2.695875e-15
-1.318993e-15
-6.122031e-16
-2.738723e-16
-1.179700e-16
-4.665050e-17
-1.646020e-17
-4.981019e-18
-1.188165e-18
-2.774016e-19
-1.038522e-19
-5.549849e-20
-2.931943e-20
-9.764090e-21
-1.853239e-22
2.166049e-23
2.533109e-23
9.015456e-24
2.692991e-24
8.988389e-25
3.348361e-25
1.321810e-25
5.438685e-26
2.334516e-26
1.032384e-26
4.575077e-27
1.974788e-27
8.128570e-28
3.265103e-28
6.268999e-29
4.960006e-31
-1.588208e-31
-1.007446e-31
-4.596362e-32
-1.674771e-32
-5.214204e-33
-1.518590e-33
-4.472513e-34
-1.424239e-34
-4.977467e-35
-1.608851e-35
-2.329180e-36
4.617256e-38
4.706382e-38
2.693356e-38
1.511433e-38
8.874556e-39
4.816207e-39
2.315948e-39
9.966946e-40
4.375029e-40
1.819298e-40
5.452283e-41
6.816209e-43
-7.104137e-43
1.041929e+00
9.580711e-01
5.986587e-01
2.397751e-01
5.877458e-02
3.883840e-03
1.284390e-04
-4.811970e-05
-2.500673e-05
-1.033369e-05
-4.388159e-06
-1.888540e-06
-7.895468e-07
-1.974177e-07
3.082598e-09
6.170901e-10
4.284958e-10
1.382149e-10
4.944744e-12
-2.705605e-12
-1.441512e-13
1.863869e-14
3.095465e-15
6.519246e-15
8.062494e-15
4.583609e-15
1.466599e-15
2.264484e-16
-1.447603e-16
-1.117749e-16
-4.661625e-17
-1.294624e-17
-2.966658e-18
-1.152299e-18
-2.873366e-19
7.608682e-20
-2.340380e-20
-2.882151e-20
-2.421617e-20
-1.524955e-20
-6.966441e-21
-2.921362e-21
-1.121981e-21
-4.017653e-22
-1.381027e-22
-4.702556e-23
-1.649519e-23
-6.153713e-24
-2.454646e-24
-1.023230e-24
-4.308683e-25
-1.830306e-25
-5.286108e-26
-1.033197e-27
1.389214e-28
1.635203e-28
6.217494e-29
2.020738e-29
6.453611e-30
1.990925e-30
5.880271e-31
1.671796e-31
4.734342e-32
1.387333e-32
3.876837e-33
7.136615e-34
1.141354e-35
-6.267024e-36
-4.272932e-36
-2.145591e-36
-1.125746e-36
-5.832262e-37
-2.893541e-37
-1.413175e-37
-7.264926e-38
-3.563922e-38
-1.364220e-38
-2.301246e-39
-2.629343e-41
1.070942e-40
9.989388e-01
1.001061e+00
8.858083e-01
5.930550e-01
2.706460e-01
8.402037e-02
1.626219e-02
1.239908e-03
4.873854e-04
2.063844e-04
7.429895e-05
8.783173e-06
-1.224218e-06
-7.483009e-07
-4.278989e-07
-1.539703e-07
-1.160418e-08
7.783240e-11
1.745651e-10
6.917949e-11
4.778527e-13
-7.344878e-13
-6.055850e-13
-2.598327e-13
-8.485514e-14
-2.242635e-14
-5.761804e-15
-1.996398e-15
-1.081399e-15
-6.842318e-16
-3.682460e-16
-1.841695e-16
-8.558384e-17
-3.370864e-17
-1.341961e-17
-5.055958e-18
-1.500846e-18
-8.748192e-20
5.208423e-21
-1.242827e-20
-2.643539e-21
1.835805e-22
2.101389e-22
8.316536e-23
4.760135e-23
3.992817e-23
2.449091e-24
3.455723e-24
3.768814e-24
1.679506e-24
3.402494e-25
-9.020860e-26
-1.185394e-25
-8.411818e-26
-3.416492e-26
-1.323320e-26
-4.808418e-27
-1.661557e-27
-5.482280e-28
-1.730997e-28
-5.258226e-29
-1.559644e-29
-4.513130e-30
-1.316705e-30
-2.477750e-31
-3.499570e-33
7.693110e-34
7.984816e-34
3.937239e-34
1.766573e-34
7.845383e-35
3.388128e-35
1.464416e-35
6.574544e-36
2.870045e-36
1.061145e-36
2.555775e-37
-3.086712e-39
-1.034293e-38
-1.008671e-38
9.998863e-01
1.000114e+00
9.862685e-01
8.523320e-01
5.809290e-01
2.961357e-01
9.870133e-02
2.187814e-02
6.580956e-04
1.854593e-04
1.387128e-04
8.993282e-05
4.133325e-05
7.719871e-06
-4.154625e-07
-3.139497e-07
-2.171739e-07
-5.633057e-08
-7.902305e-10
1.924855e-10
1.776740e-10
1.048156e-10
5.928883e-11
3.105192e-11
1.222370e-11
2.689160e-12
-6.361820e-15
9.424324e-14
4.707381e-14
1.139795e-14
1.831292e-15
8.769138e-17
-6.963003e-17
-1.243978e-17
-1.083818e-17
-7.998946e-18
-4.896692e-18
-2.600364e-18
-1.068399e-18
-4.624347e-19
-2.156524e-19
-9.623195e-20
-4.202635e-20
-1.764669e-20
-7.251153e-21
-2.915123e-21
-1.184171e-21
-4.783882e-22
-1.974422e-22
-7.888781e-23
-1.492107e-23
-1.443362e-25
4.225636e-28
-2.091545e-26
-1.807468e-26
-9.716500e-27
-3.665078e-27
-8.843970e-28
6.120762e-29
2.143431e-28
9.322190e-29
1.381049e-29
1.567587e-31
-1.806747e-30
-7.411664e-31
-3.496591e-31
-1.440344e-31
-6.129602e-32
-2.591661e-32
-1.072562e-32
-4.272958e-33
-1.623402e-33
-5.865699e-34
-1.993592e-34
-6.240322e-35
-1.533595e-35
-4.206789e-38
7.211915e-37
6.207416e-37
1.865819e-37
9.999735e-01
1.000027e+00
1.000085e+00
9.657254e-01
8.296839e-01
5.644948e-01
3.365403e-01
1.267560e-01
3.477317e-02
2.634499e-03
1.684757e-04
7.431267e-05
6.210167e-05
4.428262e-05
1.970255e-05
3.178048e-06
-3.179448e-07
-1.917036e-07
-1.138792e-07
-5.213825e-08
-2.362254e-08
-1.055296e-08
-3.823529e-09
-3.217485e-10
1.241036e-11
1.578054e-11
5.565680e-12
9.349762e-14
-1.874312e-13
-1.843202e-14
-7.060049e-15
-3.986103e-15
-1.906935e-15
-8.639163e-16
-1.283748e-16
4.150084e-18
-2.981374e-19
-6.975450e-19
-5.291025e-19
-2.452748e-19
-1.412260e-19
1.418658e-19
-3.166947e-20
2.097442e-20
6.215585e-21
4.816324e-22
9.401020e-22
5.294946e-22
8.063440e-23
-2.700114e-23
-4.749605e-23
-3.848069e-23
-1.615553e-23
-6.749990e-24
-2.827673e-24
-1.195398e-24
-4.581402e-25
-1.626465e-25
-4.280565e-26
-8.301941e-28
1.055963e-28
1.697091e-28
9.084052e-29
3.691932e-29
2.484845e-29
1.512154e-29
7.760477e-30
3.527404e-30
1.478892e-30
5.811653e-31
2.148481e-31
6.330177e-32
1.886979e-32
4.419069e-33
1.141003e-34
-5.958395e-35
-2.898822e-35
-1.176710e-35
3.876044e-37
5.201997e-37
9.999972e-01
1.000003e+00
1.000036e+00
9.984454e-01
9.484948e-01
8.110725e-01
5.427252e-01
3.577309e-01
1.479205e-01
5.002431e-02
1.006817e-02
1.909056e-04
4.196383e-05
3.809745e-05
3.352571e-05
2.201149e-05
1.094896e-05
4.718367e-06
2.026819e-06
7.692378e-07
1.276928e-07
-7.548224e-09
-7.842208e-09
-5.525852e-09
-1.849325e-09
-9.956057e-11
1.772178e-11
1.146890e-11
5.186125e-12
2.087264e-12
8.362667e-13
3.508074e-13
1.302898e-13
7.678861e-15
-7.930444e-16
-5.969428e-16
-3.033646e-16
-1.395228e-16
-6.054401e-17
-2.580925e-17
-1.107070e-17
-4.893756e-18
-2.096694e-18
-9.185209e-19
-3.929260e-19
-1.706757e-19
-7.343207e-20
-3.157146e-20
-1.095979e-20
-2.651480e-21
-1.270834e-22
-3.942378e-23
1.056680e-23
1.899424e-24
-2.132251e-24
-1.326823e-24
-8.123450e-25
-4.497689e-25
-2.336329e-25
-1.112945e-25
-4.480681e-26
-1.196086e-26
-1.882227e-27
-9.550751e-28
-1.004486e-27
-6.090134e-28
-2.676591e-28
-1.004200e-28
-3.084627e-29
-6.510462e-30
4.999766e-31
1.727438e-31
7.002648e-32
2.614252e-32
9.692408e-33
2.809295e-33
6.461013e-34
1.174524e-34
-1.430693e-35
-2.717843e-35
9.999998e-01
1.000000e+00
1.000007e+00
1.000118e+00
9.919766e-01
9.348584e-01
7.949818e-01
5.168794e-01
3.729853e-01
1.554860e-01
5.845521e-02
1.613094e-02
2.116949e-03
7.387087e-05
2.437724e-05
2.201638e-05
1.059889e-05
4.711926e-06
1.928996e-06
1.277573e-06
8.870992e-07
3.535486e-07
5.474318e-08
-5.309123e-09
-4.364685e-09
-2.583159e-09
-1.109672e-09
-4.741678e-10
-2.015144e-10
-8.797828e-11
-2.630413e-11
3.339694e-13
1.933779e-13
1.410992e-13
7.266066e-14
3.454217e-14
1.535828e-14
6.680810e-15
2.889151e-15
1.244086e-15
5.329702e-16
2.261176e-16
9.824372e-17
2.704025e-17
3.225810e-18
9.621082e-21
-1.205018e-19
-4.315308e-20
-9.917220e-21
-3.727021e-21
-3.414089e-21
-2.730161e-21
-1.270922e-21
-5.131308e-22
-1.456719e-22
1.639282e-24
4.257816e-25
3.636096e-25
3.372805e-26
-4.728331e-26
-5.193105e-26
-3.164310e-26
-1.459124e-26
-4.501321e-27
-1.255853e-27
-6.633180e-28
-4.486492e-28
-2.672767e-28
-1.397902e-28
-6.619450e-29
-2.806132e-29
-1.007974e-29
-3.335357e-30
-1.043514e-30
-3.313430e-31
-1.025451e-31
-2.402605e-32
-7.558880e-34
-1.774124e-35
1.077880e-35
9.999996e-01
1.000000e+00
9.999998e-01
1.000031e+00
9.999514e-01
9.848713e-01
9.218304e-01
7.795535e-01
5.213148e-01
3.784261e-01
1.649832e-01
6.668566e-02
2.047223e-02
4.247202e-03
3.901363e-04
8.157653e-05
4.368023e-05
2.466500e-05
9.315740e-06
1.833139e-06
8.410719e-07
6.961518e-07
4.395533e-07
2.184909e-07
8.929841e-08
3.563501e-08
1.444037e-08
5.905801e-09
1.231407e-09
-9.582776e-11
-6.776863e-11
-4.248687e-11
-1.893743e-11
-8.337125e-12
-3.651029e-12
-1.589529e-12
-6.883189e-13
-2.972078e-13
-1.277932e-13
-5.642205e-14
-1.497134e-14
1.706047e-16
1.054305e-16
7.903547e-17
3.958957e-17
1.165742e-17
4.908691e-18
1.946292e-18
5.165104e-19
1.010241e-19
1.112475e-20
9.449448e-22
-1.212373e-21
-9.340178e-22
-5.632192e-22
-2.974846e-22
-1.308235e-22
-4.247392e-23
-1.023220e-23
-2.456056e-25
3.963228e-25
1.663569e-26
1.803681e-27
4.133260e-29
9.767788e-28
-4.443198e-28
6.158011e-29
5.395989e-30
-4.954170e-29
-3.483184e-29
-1.909531e-29
-8.428708e-30
-3.137133e-30
-1.052662e-30
-4.506475e-31
-1.802567e-31
-7.334325e-32
-3.145484e-32
-1.432870e-32
-8.272036e-33
9.999997e-01
1.000000e+00
1.000000e+00
1.000011e+00
1.000021e+00
9.988913e-01
9.786645e-01
9.079859e-01
7.698485e-01
5.221695e-01
3.810616e-01
1.771244e-01
7.562976e-02
2.537792e-02
5.921421e-03
4.575795e-04
2.307234e-05
3.011853e-05
2.548681e-05
1.396500e-05
3.821737e-06
6.946450e-07
4.249734e-07
2.214476e-07
8.553710e-08
3.260720e-08
1.389035e-08
6.005186e-09
4.967295e-09
2.746434e-09
1.224917e-09
5.317260e-10
2.281579e-10
9.619971e-11
3.969758e-11
1.601270e-11
6.626121e-12
1.836554e-12
-1.488755e-14
-6.201181e-14
-5.133155e-14
-2.644426e-14
-4.688375e-15
-9.210224e-18
6.208116e-17
3.750466e-17
6.512217e-18
2.078247e-18
3.727588e-19
1.442668e-20
-1.227526e-20
-3.183228e-21
7.975296e-22
1.867938e-21
1.213701e-21
-4.811090e-23
-1.443753e-22
-1.104906e-22
-6.354213e-23
-3.238599e-23
-1.288222e-23
-4.355283e-24
-1.320678e-24
-4.036877e-25
-1.739855e-25
-8.121164e-26
-4.117802e-26
-2.094324e-26
-1.003109e-26
-4.428203e-27
-1.832220e-27
-6.983394e-28
-1.547026e-28
9.748085e-31
2.565041e-30
5.537147e-31
5.939541e-32
8.605391e-33
4.644799e-33
3.638481e-33
9.999999e-01
1.000000e+00
1.000000e+00
1.000002e+00
1.000014e+00
1.000018e+00
9.972065e-01
9.709687e-01
8.969186e-01
7.615686e-01
5.236724e-01
3.740160e-01
1.874024e-01
8.578803e-02
3.200931e-02
8.933683e-03
1.261646e-03
2.421616e-05
2.476894e-05
2.231725e-05
1.626659e-05
6.813564e-06
2.083279e-06
8.378245e-07
4.737931e-07
2.554105e-07
1.011741e-07
2.215529e-08
4.981368e-09
1.849667e-09
1.105644e-09
4.290166e-10
1.338516e-10
8.813165e-11
4.083702e-11
1.152285e-11
5.828513e-12
4.934033e-12
2.587896e-12
6.354927e-13
-4.758205e-14
-4.076918e-14
-2.979546e-14
-1.265680e-14
-1.680318e-15
4.839395e-17
5.166293e-17
3.034021e-17
1.245644e-17
5.480647e-18
1.253376e-18
-1.062962e-20
-4.219289e-21
-2.479400e-21
8.472616e-22
1.125985e-21
9.964072e-22
4.120079e-22
1.240732e-22
2.582986e-23
-1.214172e-24
-3.669137e-24
-1.551747e-24
-3.844462e-25
-5.739275e-26
-5.905416e-26
-3.986831e-26
-2.071642e-26
-9.462053e-27
-2.184413e-27
-1.097306e-27
-6.821101e-28
-5.728608e-28
-3.036657e-28
-1.099949e-28
-3.825074e-29
-1.375955e-29
-5.339574e-30
-2.105597e-30
-4.180951e-31
1.000000e+00
1.000000e+00
1.000000e+00
1.000000e+00
1.000007e+00
1.000007e+00
9.999960e-01
9.941301e-01
9.638294e-01
8.861269e-01
7.588923e-01
5.118435e-01
3.892447e-01
1.920779e-01
9.242490e-02
3.725785e-02
1.173287e-02
2.333324e-03
7.178287e-05
2.066548e-05
1.747982e-05
1.374233e-05
6.874412e-06
1.783347e-06
4.825783e-07
2.517058e-07
2.010995e-07
1.287903e-07
6.441739e-08
3.051394e-08
1.459708e-08
7.007575e-09
3.347026e-09
1.535875e-09
7.448001e-10
2.526985e-10
3.769339e-11
4.612041e-12
3.603342e-12
2.519014e-12
1.363411e-12
3.306382e-13
-2.184567e-14
-2.355657e-14
-1.551892e-14
-7.322499e-15
-3.270108e-15
-8.754967e-16
-3.668229e-19
6.323055e-18
5.058366e-18
2.701222e-18
9.149768e-19
1.103571e-19
-1.180387e-20
-8.571261e-22
5.508198e-22
6.411356e-22
4.664510e-22
2.345659e-22
9.937505e-23
3.385024e-23
7.695071e-24
-2.745840e-24
-3.170361e-24
-1.722843e-24
-8.469727e-25
-4.200514e-25
-1.993242e-25
-9.348523e-26
-2.992095e-26
-3.201426e-27
-1.882308e-28
-1.637232e-28
-7.006127e-29
-3.206774e-29
-1.286670e-29
-5.488080e-30
-3.347590e-30
-1.860140e-30
1.000000e+00
1.000000e+00
1.000000e+00
1.000000e+00
1.000002e+00
1.000005e+00
1.000010e+00
9.997406e-01
9.914386e-01
9.548332e-01
8.817565e-01
7.453890e-01
5.158581e-01
3.937625e-01
1.986595e-01
9.896801e-02
4.204921e-02
1.459639e-02
3.664348e-03
3.532524e-04
2.586556e-05
1.749100e-05
1.392775e-05
9.881410e-06
4.172514e-06
9.869829e-07
1.954384e-07
1.279434e-07
6.056861e-08
2.549328e-08
1.443890e-08
5.602864e-09
2.909015e-09
1.237663e-09
7.350389e-10
5.906495e-10
3.358104e-10
8.880500e-11
4.451583e-12
1.373990e-12
1.670613e-12
1.221866e-12
6.368049e-13
2.626445e-13
8.400971e-14
2.021708e-15
-3.358596e-15
-2.985277e-15
-1.635759e-15
-7.433026e-16
-2.290125e-16
-1.419860e-17
3.495480e-18
1.546410e-18
7.812988e-19
2.752622e-19
1.074040e-20
-1.417774e-21
-1.230309e-21
-4.255573e-22
-1.586769e-22
-9.109409e-24
9.266669e-24
-1.670241e-24
-2.098890e-24
-1.624461e-24
-4.477007e-25
-2.991524e-25
-2.022140e-25
-9.307770e-26
-7.161593e-26
-4.072676e-26
-1.819385e-26
-7.630478e-27
-2.978616e-27
-1.133020e-27
-3.989055e-28
-6.475327e-29
-1.553918e-30
-1.700810e-30
1.000000e+00
1.000000e+00
1.000000e+00
1.000000e+00
1.000000e+00
1.000002e+00
1.000006e+00
9.999078e-01
9.998460e-01
9.863388e-01
9.508630e-01
8.715563e-01
7.384284e-01
5.161147e-01
3.971874e-01
2.052278e-01
1.052551e-01
4.645648e-02
1.750614e-02
5.041033e-03
6.216110e-04
1.013204e-05
7.486883e-06
9.139720e-06
7.890517e-06
5.115108e-06
2.517068e-06
1.160636e-06
5.575791e-07
2.738479e-07
1.307063e-07
6.452716e-08
3.248655e-08
1.321198e-08
2.875752e-09
5.645164e-10
4.600167e-10
3.551359e-10
1.676218e-10
3.594885e-11
1.672915e-12
1.122528e-12
4.002257e-13
2.367197e-13
1.787563e-13
1.073827e-13
4.785256e-14
1.995846e-14
5.143250e-15
-7.015843e-16
-6.007919e-16
-3.552453e-16
-1.674976e-16
-4.962397e-17
-3.346991e-19
3.169963e-19
3.865520e-19
2.104900e-19
8.253819e-20
1.444255e-20
-5.086504e-22
-1.792949e-22
-1.450991e-22
-9.014559e-23
-5.060335e-23
-2.652031e-23
-1.331198e-23
-6.424084e-24
-2.723884e-24
-5.026931e-25
-4.976758e-26
-3.612828e-26
-1.387456e-26
-7.474590e-27
-2.000981e-27
-1.095069e-27
-7.162846e-28
-4.650256e-28
-1.527046e-28
-2.646371e-29
1.000000e+00
1.000000e+00
1.000000e+00
1.000000e+00
1.000000e+00
1.000000e+00
1.000004e+00
9.999617e-01
1.000002e+00
9.977050e-01
9.838771e-01
9.447148e-01
8.634769e-01
7.326102e-01
5.157476e-01
4.002197e-01
2.116231e-01
1.117700e-01
5.061590e-02
2.043921e-02
7.062760e-03
1.712028e-03
2.210410e-04
1.025238e-05
5.983447e-06
1.031799e-06
1.186439e-06
9.581055e-07
4.435566e-07
2.585256e-07
5.595351e-08
5.660439e-08
3.216702e-08
2.658696e-08
1.625715e-08
5.672520e-09
5.698648e-10
3.333995e-10
2.725310e-10
1.819434e-10
8.970564e-11
4.029889e-11
1.467320e-11
2.027932e-12
-7.229368e-15
7.424690e-14
3.129423e-14
1.856843e-14
1.422102e-14
8.297692e-15
3.049727e-15
4.634576e-16
-1.707765e-16
-1.386890e-16
-7.887709e-17
-3.466846e-17
-9.668320e-18
9.122577e-22
1.215125e-19
8.904380e-20
4.269193e-20
1.760483e-20
7.384658e-21
3.186820e-21
1.398617e-21
5.545079e-22
1.401649e-22
-2.899855e-24
-4.490113e-24
-3.155006e-24
-1.494087e-24
-6.452525e-25
-2.804826e-25
-1.245131e-25
-4.962774e-26
-1.017466e-26
-4.593795e-28
-4.347292e-28
-3.355700e-28
-1.726907e-28
1.000000e+00
1.000000e+00
1.000000e+00
1.000000e+00
1.000000e+00
1.000000e+00
1.000002e+00
9.999843e-01
9.999960e-01
9.999660e-01
9.962228e-01
9.802155e-01
9.386690e-01
8.558905e-01
7.276406e-01
5.150087e-01
4.023130e-01
2.167701e-01
1.190315e-01
5.374130e-02
2.141959e-02
7.355031e-03
2.237027e-03
7.343097e-04
3.236317e-04
1.431006e-04
6.411260e-05
2.897520e-05
1.295366e-05
5.656297e-06
2.653235e-06
8.480846e-07
1.166065e-07
2.822579e-08
2.130768e-08
1.637189e-08
9.050588e-09
2.371692e-09
3.220625e-10
1.681996e-10
7.668228e-11
3.956393e-11
3.085747e-11
1.925500e-11
8.885281e-12
4.071103e-12
1.316322e-12
9.089451e-14
5.742210e-15
5.015101e-15
4.285035e-15
2.924622e-15
1.507701e-15
4.973976e-16
1.251440e-17
-3.736214e-17
-2.942583e-17
-1.631566e-17
-6.854397e-18
-2.904571e-18
-1.234710e-18
-5.248998e-19
-2.299572e-19
-8.962594e-20
-1.371860e-20
7.407402e-22
5.814814e-22
3.159260e-22
1.310502e-22
5.501378e-23
2.380788e-23
9.633302e-24
1.969058e-24
-7.451792e-26
-8.620120e-26
-5.498178e-26
-2.306603e-26
-4.805877e-27
-1.680784e-28
-9.648935e-29
1.000000e+00
1.000000e+00
1.000000e+00
1.000000e+00
1.000000e+00
1.000000e+00
1.000001e+00
9.999935e-01
9.999932e-01
9.999944e-01
9.996690e-01
9.947593e-01
9.763877e-01
9.334431e-01
8.475883e-01
7.250005e-01
5.158725e-01
4.045019e-01
2.192704e-01
1.311993e-01
6.154401e-02
2.465790e-02
8.089254e-03
1.898721e-03
3.191991e-04
1.481776e-04
6.669323e-05
2.504779e-05
1.257203e-05
5.661021e-06
2.719479e-06
2.151298e-06
1.174110e-06
2.986549e-07
2.133788e-08
1.578225e-08
1.247649e-08
9.115603e-09
4.746253e-09
2.257818e-09
8.964329e-10
1.772791e-10
3.406196e-11
1.587558e-11
6.907574e-12
3.990243e-12
3.262429e-12
1.989286e-12
8.358512e-13
1.661735e-13
8.141443e-16
2.359751e-15
1.131948e-15
9.372725e-16
5.804919e-16
2.537850e-16
8.672949e-17
2.405982e-17
4.384619e-18
-9.874072e-19
-1.175337e-18
-5.355081e-19
-2.147905e-19
-1.247321e-19
-9.649844e-20
-5.068295e-20
-2.298688e-20
-9.726321e-21
-4.105544e-21
-1.454516e-21
-1.867603e-22
1.340891e-23
9.945718e-24
5.736746e-24
1.801985e-24
-6.909070e-27
-3.322962e-26
-2.577893e-26
-1.207920e-26
-5.254285e-27
1.000000e+00
1.000000e+00
1.000000e+00
1.000000e+00
1.000000e+00
1.000000e+00
1.000000e+00
9.999984e-01
9.999944e-01
9.999959e-01
9.999909e-01
9.992595e-01
9.929658e-01
9.723710e-01
9.301634e-01
8.318767e-01
7.228674e-01
5.195347e-01
4.071533e-01
2.223261e-01
1.368541e-01
6.861651e-02
3.017406e-02
1.136436e-02
3.491250e-03
9.942991e-04
4.760566e-04
2.361746e-04
1.143668e-04
4.049861e-05
7.461248e-06
2.254429e-06
1.751148e-06
1.297572e-06
5.929222e-07
1.216293e-07
1.113256e-08
7.967097e-09
3.892311e-09
2.071746e-09
1.727518e-09
1.128470e-09
5.615646e-10
2.658688e-10
9.194812e-11
1.275732e-11
2.054610e-12
1.972809e-12
1.297889e-12
8.375431e-13
4.219230e-13
1.518441e-13
1.700150e-14
-4.104146e-16
-3.412889e-17
1.449497e-16
-1.425178e-17
-5.376255e-18
-1.108538e-17
-1.098750e-17
-6.453439e-18
-3.513423e-18
-1.456227e-18
-2.782764e-19
-8.754344e-20
-5.029960e-20
-2.229360e-20
-7.881300e-21
-3.835796e-21
-2.783035e-21
-1.740295e-21
-7.591370e-22
-1.509825e-22
3.137499e-24
4.628299e-24
3.145928e-24
1.390778e-24
5.965302e-25
2.484880e-25
7.262871e-26
1.000000e+00
1.000000e+00
1.000000e+00
1.000000e+00
1.000000e+00
1.000000e+00
1.000000e+00
1.000000e+00
9.999968e-01
9.999965e-01
9.999979e-01
9.999436e-01
9.989844e-01
9.901781e-01
9.711361e-01
9.209727e-01
8.231509e-01
7.195743e-01
5.218705e-01
4.078702e-01
2.281344e-01
1.366353e-01
6.952432e-02
3.124992e-02
1.177332e-02
3.419328e-03
5.753771e-04
2.415481e-04
1.290897e-04
1.025749e-04
5.596974e-05
1.543091e-05
1.895287e-06
1.224605e-06
9.976798e-07
6.651934e-07
3.344814e-07
1.583502e-07
6.275232e-08
1.197875e-08
1.048472e-09
6.881117e-10
5.162887e-10
2.614038e-10
2.176770e-10
1.318043e-10
6.291721e-11
2.016774e-11
1.654150e-12
6.783320e-13
3.898362e-13
3.260723e-13
2.068388e-13
9.604827e-14
4.273764e-14
1.872740e-14
8.178119e-15
3.504672e-15
1.468615e-15
6.373896e-16
1.920044e-16
4.590000e-18
-1.588668e-18
-1.839275e-18
-9.892525e-19
-4.724349e-19
-2.272768e-19
-1.119422e-19
-3.306439e-20
-2.669555e-21
-1.523558e-21
-1.198881e-21
-8.010511e-22
-4.079726e-22
-1.704801e-22
-7.134976e-23
-2.574536e-23
-4.125212e-24
2.323551e-25
2.042975e-25
1.000000e+00
1.000000e+00
1.000000e+00
1.000000e+00
1.000000e+00
1.000000e+00
1.000000e+00
1.000000e+00
9.999992e-01
9.999974e-01
9.999975e-01
9.999747e-01
9.999900e-01
9.975618e-01
9.896636e-01
9.671517e-01
9.134696e-01
8.160298e-01
7.166336e-01
5.215115e-01
4.107746e-01
2.332175e-01
1.463681e-01
7.662799e-02
3.646863e-02
1.525453e-02
5.277077e-03
1.350593e-03
2.979109e-04
1.051967e-04
8.698057e-05
6.307513e-05
2.900442e-05
7.256228e-06
9.406253e-07
5.569247e-07
3.420701e-07
1.487156e-07
1.226765e-07
7.823704e-08
3.942271e-08
1.848734e-08
6.214073e-09
8.032855e-10
9.594973e-11
1.095406e-10
6.754812e-11
5.308323e-11
3.248080e-11
1.203330e-11
1.995721e-12
2.541469e-13
8.518147e-14
8.126141e-14
3.225838e-14
1.236397e-14
6.991107e-15
3.008272e-15
6.291460e-16
6.199018e-16
4.986917e-16
2.853288e-16
1.245551e-16
5.319490e-17
2.316454e-17
8.097168e-18
6.403822e-19
-1.721070e-19
-1.054497e-19
-5.769674e-20
-1.705775e-20
-1.317081e-21
-7.984035e-22
-2.620178e-22
-1.558817e-22
-5.754457e-23
-4.449804e-23
-2.892418e-23
-1.476804e-23
-5.328208e-24
1.000000e+00
1.000000e+00
1.000000e+00
1.000000e+00
1.000000e+00
1.000000e+00
1.000000e+00
1.000000e+00
1.000000e+00
9.999986e-01
9.999986e-01
9.999876e-01
9.999888e-01
9.996287e-01
9.969434e-01
9.879450e-01
9.629539e-01
9.062013e-01
8.112171e-01
7.119348e-01
5.210465e-01
4.143598e-01
2.385821e-01
1.469321e-01
7.676409e-02
3.698652e-02
1.607283e-02
5.950253e-03
1.811844e-03
4.326851e-04
8.899399e-05
6.331728e-05
4.740979e-05
3.055591e-05
1.420219e-05
5.476742e-06
2.422417e-06
7.310773e-07
1.373140e-07
7.706066e-08
3.702739e-08
1.786354e-08
1.472618e-08
8.986942e-09
4.400498e-09
1.446534e-09
1.329012e-10
5.437612e-11
3.126387e-11
2.520217e-11
1.577144e-11
7.534057e-12
3.542603e-12
1.623286e-12
7.473002e-13
3.399192e-13
1.523709e-13
7.019685e-14
2.375234e-14
2.236611e-15
3.778510e-16
1.951233e-16
5.633845e-19
1.239369e-17
2.026890e-17
1.709847e-17
1.076091e-17
4.148541e-18
4.806384e-19
-5.212588e-20
-5.261076e-20
-3.053769e-20
-1.348467e-20
-6.121976e-21
-2.803342e-21
-8.135327e-22
-6.275134e-23
-2.583646e-23
-5.601646e-24
-2.015232e-24
1.000000e+00
1.000000e+00
1.000000e+00
1.000000e+00
1.000000e+00
1.000000e+00
1.000000e+00
1.000000e+00
1.000000e+00
9.999994e-01
9.999994e-01
9.999941e-01
9.999915e-01
9.999847e-01
9.993592e-01
9.962050e-01
9.859731e-01
9.585867e-01
8.992741e-01
8.087731e-01
7.066585e-01
5.196396e-01
4.154471e-01
2.429563e-01
1.591459e-01
8.342486e-02
4.032206e-02
1.769011e-02
6.901494e-03
2.324004e-03
6.516868e-04
1.609288e-04
5.869028e-05
3.656791e-05
2.265534e-05
1.041967e-05
3.919617e-06
2.432000e-06
1.420686e-06
7.096715e-07
3.097767e-07
7.440234e-08
1.484899e-08
7.822394e-09
4.508822e-09
3.651157e-09
2.250937e-09
8.746957e-10
1.472001e-10
1.615141e-11
1.418393e-11
3.611919e-12
2.589537e-12
1.383440e-12
6.726265e-13
2.989032e-13
1.181308e-13
6.820974e-14
5.583513e-14
3.368580e-14
1.523128e-14
6.724526e-15
3.096940e-15
1.170102e-15
1.736050e-16
1.974929e-17
1.003386e-17
8.316723e-18
5.244182e-18
2.568811e-18
1.087625e-18
4.760547e-19
1.395434e-19
-2.808691e-21
-2.858098e-21
-2.469988e-21
-1.406953e-21
-6.186999e-22
-2.916562e-22
-1.105597e-22
1.000000e+00
1.000000e+00
1.000000e+00
1.000000e+00
1.000000e+00
1.000000e+00
1.000000e+00
1.000000e+00
1.000000e+00
9.999998e-01
9.999998e-01
9.999981e-01
9.999942e-01
9.999959e-01
9.999355e-01
9.991091e-01
9.953159e-01
9.837665e-01
9.546708e-01
8.884634e-01
8.114792e-01
7.048794e-01
5.184617e-01
4.165060e-01
2.444933e-01
1.649404e-01
8.855601e-02
4.345931e-02
1.934521e-02
7.740834e-03
2.727758e-03
8.220109e-04
2.230176e-04
7.486780e-05
4.194043e-05
2.760792e-05
1.297295e-05
3.362492e-06
1.397184e-06
6.879118e-07
5.706090e-07
3.728012e-07
2.000669e-07
7.027944e-08
1.118848e-08
3.443701e-09
2.248688e-09
1.748593e-09
1.098666e-09
5.327990e-10
2.436727e-10
1.136975e-10
5.248840e-11
2.382301e-11
1.093056e-11
5.219599e-12
1.774529e-12
2.083485e-13
5.836478e-14
3.137302e-14
1.487762e-14
3.663159e-15
2.994601e-15
2.323633e-15
1.505504e-15
6.045826e-16
9.449290e-17
4.093905e-18
4.393517e-18
1.186285e-18
7.454527e-19
4.808823e-19
3.744899e-19
2.174259e-19
9.291218e-20
3.892014e-20
1.611010e-20
6.634055e-21
2.751469e-21
1.013477e-21
1.000000e+00
1.000000e+00
1.000000e+00
1.000000e+00
1.000000e+00
1.000000e+00
1.000000e+00
1.000000e+00
1.000000e+00
9.999999e-01
9.999999e-01
9.999999e-01
9.999967e-01
9.999959e-01
9.999982e-01
9.998352e-01
9.989795e-01
9.937390e-01
9.845883e-01
9.402606e-01
8.937073e-01
7.989179e-01
7.032146e-01
5.214237e-01
4.170932e-01
2.478413e-01
1.705253e-01
9.370880e-02
4.709745e-02
2.144743e-02
8.827407e-03
3.226927e-03
1.016927e-03
2.727668e-04
7.431915e-05
3.876087e-05
2.950438e-05
1.949571e-05
9.069923e-06
2.852967e-06
5.942965e-07
3.468837e-07
2.033078e-07
1.596756e-07
1.000595e-07
4.091455e-08
8.847570e-09
1.362560e-09
1.013226e-09
3.881506e-10
1.987942e-10
1.027912e-10
4.133104e-11
1.588033e-11
8.864889e-12
5.136382e-12
4.269310e-12
2.594355e-12
1.208289e-12
5.406708e-13
2.537652e-13
1.018080e-13
1.490799e-14
2.519283e-15
1.416452e-15
1.168037e-15
7.570362e-16
3.567951e-16
1.597428e-16
7.690897e-17
2.459279e-17
2.129900e-18
1.524083e-19
1.832910e-19
2.950412e-20
-1.124721e-20
1.300907e-20
6.827531e-21
-1.391836e-21
7.085676e-22
1.000000e+00
1.000000e+00
1.000000e+00
1.000000e+00
1.000000e+00
1.000000e+00
1.000000e+00
1.000000e+00
1.000000e+00
1.000000e+00
9.999999e-01
9.999999e-01
9.999991e-01
9.999968e-01
9.999980e-01
9.999250e-01
9.999089e-01
9.968918e-01
9.968044e-01
9.754978e-01
9.435849e-01
8.871210e-01
7.906294e-01
7.009812e-01
5.218787e-01
4.173755e-01
2.503245e-01
1.744134e-01
9.766104e-02
5.033565e-02
2.349419e-02
9.963291e-03
3.816036e-03
1.291563e-03
3.708705e-04
8.373096e-05
3.097871e-05
1.966606e-05
1.451511e-05
9.779007e-06
5.050533e-06
1.883242e-06
5.452622e-07
1.670463e-07
9.974522e-08
7.757948e-08
5.041249e-08
2.574058e-08
1.188179e-08
5.741924e-09
2.641549e-09
1.244586e-09
5.726764e-10
2.822848e-10
9.975269e-11
1.465904e-11
4.133043e-12
2.500681e-12
1.168593e-12
4.308846e-13
2.475470e-13
1.905574e-13
1.325272e-13
5.027487e-14
7.711754e-15
1.256485e-15
7.427074e-16
3.315243e-16
8.490868e-17
7.009835e-17
6.001282e-17
3.551529e-17
1.587105e-17
7.049208e-18
3.234769e-18
1.440899e-18
6.289496e-19
2.822342e-19
1.240455e-19
5.275236e-20
1.000000e+00
1.000000e+00
1.000000e+00
1.000000e+00
1.000000e+00
1.000000e+00
1.000000e+00
1.000000e+00
1.000000e+00
1.000000e+00
1.000000e+00
1.000000e+00
1.000000e+00
9.999983e-01
9.999990e-01
9.999665e-01
9.999745e-01
9.986503e-01
9.985969e-01
9.923992e-01
9.749110e-01
9.411926e-01
8.822709e-01
7.835937e-01
6.993758e-01
5.243999e-01
4.205896e-01
2.546084e-01
1.790450e-01
1.014651e-01
5.356988e-02
2.549819e-02
1.100855e-02
4.337667e-03
1.565132e-03
5.117053e-04
1.511596e-04
4.636977e-05
1.915864e-05
1.183753e-05
7.874468e-06
4.286767e-06
2.364718e-06
1.165000e-06
4.165231e-07
8.328913e-08
4.866478e-08
2.558958e-08
1.138564e-08
5.774100e-09
2.108005e-09
1.219345e-09
4.904754e-10
2.784949e-10
2.292304e-10
1.440113e-10
6.839542e-11
3.174301e-11
1.498547e-11
5.905758e-12
1.060436e-12
1.677180e-13
1.240825e-13
9.744037e-14
6.196806e-14
3.000998e-14
1.345247e-14
6.378477e-15
2.236876e-15
2.639204e-16
2.257595e-17
2.987961e-17
1.574956e-17
4.000275e-18
1.821164e-18
1.061626e-18
5.401096e-19
2.689172e-19
8.776810e-20
5.333401e-20
1.000000e+00
1.000000e+00
1.000000e+00
1.000000e+00
1.000000e+00
1.000000e+00
1.000000e+00
1.000000e+00
1.000000e+00
1.000000e+00
1.000000e+00
1.000000e+00
1.000000e+00
9.999993e-01
9.999995e-01
9.999851e-01
9.999909e-01
9.993952e-01
9.993863e-01
9.979569e-01
9.905261e-01
9.730507e-01
9.372400e-01
8.796608e-01
7.714654e-01
6.917661e-01
5.232458e-01
4.221811e-01
2.585876e-01
1.840343e-01
1.048701e-01
5.703391e-02
2.784641e-02
1.220831e-02
4.829200e-03
1.739408e-03
5.749358e-04
1.813684e-04
5.965839e-05
2.330157e-05
1.240416e-05
7.744593e-06
3.670672e-06
1.712301e-06
1.110046e-06
6.862417e-07
3.417000e-07
1.748354e-07
8.871329e-08
4.476026e-08
2.214158e-08
1.087379e-08
4.444295e-09
9.577541e-10
2.445004e-10
1.165009e-10
6.384757e-11
2.531315e-11
1.442542e-11
1.176764e-11
7.624594e-12
3.162750e-12
6.336152e-13
7.753769e-14
4.888267e-14
1.824420e-14
1.237976e-14
6.401074e-15
5.123968e-15
3.131327e-15
1.453126e-15
6.465784e-16
2.970277e-16
1.365884e-16
6.232997e-17
2.824208e-17
1.270561e-17
5.941040e-18
1.901492e-18
2.647467e-19
1.000000e+00
1.000000e+00
1.000000e+00
1.000000e+00
1.000000e+00
1.000000e+00
1.000000e+00
1.000000e+00
1.000000e+00
1.000000e+00
1.000000e+00
1.000000e+00
1.000000e+00
9.999997e-01
9.999997e-01
9.999934e-01
9.999946e-01
9.997733e-01
9.995608e-01
9.994679e-01
9.969831e-01
9.892521e-01
9.704420e-01
9.337809e-01
8.782626e-01
7.661700e-01
6.868986e-01
5.219703e-01
4.232927e-01
2.619807e-01
1.899694e-01
1.067978e-01
5.993526e-02
3.036384e-02
1.379355e-02
5.609898e-03
2.044367e-03
6.754460e-04
2.116586e-04
7.006971e-05
2.643299e-05
1.331036e-05
9.691924e-06
4.441550e-06
1.434586e-06
6.682986e-07
3.140036e-07
1.529231e-07
8.345380e-08
3.917969e-08
1.932206e-08
1.071312e-08
8.793431e-09
5.583613e-09
2.825799e-09
1.330835e-09
6.533682e-10
2.764587e-10
5.405405e-11
1.235056e-11
7.581115e-12
6.017249e-12
3.854531e-12
1.884090e-12
8.554929e-13
4.072369e-13
1.573841e-13
2.714763e-14
3.376154e-15
2.585508e-15
1.309143e-15
3.313040e-16
2.171038e-16
1.207053e-16
6.447592e-17
1.687153e-17
1.165735e-17
6.007433e-18
4.941019e-18
2.521812e-18
1.000000e+00
1.000000e+00
1.000000e+00
1.000000e+00
1.000000e+00
1.000000e+00