# vtk DataFile Version 3.0
MUSCL
ASCII
DATASET STRUCTURED_POINTS
DIMENSIONS 80 80 1
ORIGIN 0 0 0
SPACING 0.0125 0.0125 1
POINT_DATA 6400
SCALARS Temperature double 1
LOOKUP_TABLE default
0.000000e+00
-6.739992e-01
-1.939393e-01
-2.456549e-02
-3.516764e-04
1.011806e-05
1.052819e-07
-6.721882e-07
-1.533289e-07
-7.926638e-08
-3.876923e-08
-1.798453e-08
-8.140013e-09
-3.683197e-09
-1.477195e-09
-6.312628e-10
-8.716536e-11
-4.462232e-13
8.162220e-13
2.862258e-13
1.602460e-15
7.424289e-15
9.692261e-15
7.796174e-15
5.621913e-15
3.442919e-15
1.825579e-15
8.685597e-16
3.715547e-16
1.577706e-16
6.220522e-17
2.336071e-17
8.452695e-18
2.972276e-18
1.034335e-18
3.581840e-19
1.249274e-19
4.469212e-20
1.689935e-20
6.334551e-21
1.439113e-21
1.852939e-23
-3.846512e-24
-2.332823e-24
-7.881813e-25
-2.890090e-25
-1.204010e-25
-5.304431e-26
-2.420959e-26
-1.136366e-26
-6.557851e-27
-8.789303e-28
-1.489617e-29
1.720948e-29
2.434510e-29
1.798954e-29
8.355224e-30
3.451457e-30
1.283651e-30
4.806218e-31
2.040480e-31
1.064759e-31
2.640225e-32
4.752569e-34
-2.307368e-34
-1.051338e-34
-4.034555e-35
-1.671930e-35
-7.068211e-36
-2.951051e-36
-1.205672e-36
-4.841819e-37
-1.917996e-37
-7.439450e-38
-2.766655e-38
-9.596470e-39
-2.773599e-39
-1.246571e-40
3.927615e-41
3.809316e-41
1.326001e+00
6.739992e-01
1.939393e-01
2.456549e-02
3.516764e-04
-1.011806e-05
-1.052819e-07
6.721882e-07
1.533289e-07
7.926638e-08
3.876923e-08
1.798453e-08
8.140013e-09
3.683197e-09
1.477195e-09
6.312628e-10
8.716536e-11
4.462232e-13
-8.162220e-13
-2.862258e-13
-1.602460e-15
-7.424289e-15
-9.692261e-15
-7.796174e-15
-5.621913e-15
-3.442919e-15
-1.825579e-15
-8.685597e-16
-3.715547e-16
-1.577706e-16
-6.220522e-17
-2.336071e-17
-8.452695e-18
-2.972276e-18
-1.034335e-18
-3.581840e-19
-1.249274e-19
-4.469212e-20
-1.689935e-20
-6.334551e-21
-1.439113e-21
-1.852939e-23
3.846512e-24
2.332823e-24
7.881813e-25
2.890090e-25
1.204010e-25
5.304431e-26
2.420959e-26
1.136366e-26
6.557851e-27
8.789303e-28
1.489617e-29
-1.720948e-29
-2.434510e-29
-1.798954e-29
-8.355224e-30
-3.451457e-30
-1.283651e-30
-4.806218e-31
-2.040480e-31
-1.064759e-31
-2.640225e-32
-4.752569e-34
2.307368e-34
1.051338e-34
4.034555e-35
1.671930e-35
7.068211e-36
2.951051e-36
1.205672e-36
4.841819e-37
1.917996e-37
7.439450e-38
2.766655e-38
9.596470e-39
2.773599e-39
1.246571e-40
-3.927615e-41
-3.809316e-41
1.041958e+00
9.580419e-01
5.985525e-01
2.398147e-01
5.880460e-02
3.785640e-03
-9.427562e-06
-3.353875e-05
-2.105725e-05
-9.400630e-06
-4.151961e-06
-1.838850e-06
-7.758180e-07
-1.975197e-07
2.904139e-09
9.274132e-10
6.602246e-10
2.238059e-10
9.277316e-12
-8.176912e-13
-3.611779e-13
-8.206720e-14
3.823452e-15
-2.865599e-15
-4.862605e-15
-2.531301e-15
-1.734228e-15
-7.245450e-16
-4.791092e-16
-1.538673e-16
-6.023176e-17
-1.988192e-17
-6.413261e-18
-2.637886e-18
-9.445609e-19
-1.762156e-19
8.391876e-21
9.335920e-21
-3.362478e-21
-4.076985e-21
-2.381485e-21
-2.176030e-21
-1.061914e-21
-4.588388e-22
-1.853412e-22
-7.186264e-23
-2.712658e-23
-1.012727e-23
-4.005859e-24
-1.211633e-24
-2.960271e-26
1.316337e-26
6.675317e-27
3.604544e-27
2.173240e-27
1.249645e-27
6.393446e-28
2.915776e-28
1.224025e-28
5.193715e-29
2.228918e-29
4.819850e-30
5.446070e-32
-5.827915e-32
-4.148016e-32
-1.746890e-32
-6.985586e-33
-2.670203e-33
-9.992760e-34
-3.783132e-34
-1.476178e-34
-5.882531e-35
-2.330885e-35
-8.934507e-36
-3.260291e-36
-7.745672e-37
-1.063398e-37
1.020781e-38
4.730122e-39
3.341666e-39
1.000268e+00
9.997317e-01
8.846219e-01
5.931986e-01
2.706091e-01
8.389730e-02
1.608381e-02
1.271800e-03
4.869829e-04
2.108587e-04
7.691443e-05
9.981216e-06
-9.884785e-07
-7.604252e-07
-4.319053e-07
-1.582565e-07
-1.490122e-08
2.305526e-10
3.845209e-10
5.549238e-11
-4.513035e-12
-1.023621e-12
-7.289594e-13
-4.573122e-13
-2.124288e-13
-9.932284e-14
-4.093507e-14
-9.282545e-15
-1.041218e-15
-7.848614e-16
-8.015326e-16
-4.916022e-16
-2.310926e-16
-1.017958e-16
-4.358553e-17
-1.780051e-17
-7.012671e-18
-2.708932e-18
-1.004032e-18
-2.582978e-19
-1.984803e-20
9.867843e-22
-2.640858e-22
-3.896442e-22
-1.339908e-22
-3.182856e-23
-1.486426e-23
-8.066548e-24
-3.776461e-24
-2.834293e-24
-1.685302e-24
-7.978408e-25
-4.101074e-25
-2.190892e-25
-1.165446e-25
-5.935667e-26
-2.846323e-26
-1.310659e-26
-5.591957e-27
-1.532602e-27
-1.625335e-29
1.165985e-29
1.113553e-29
6.181428e-30
2.977873e-30
1.308623e-30
5.447952e-31
2.205795e-31
8.796648e-32
3.460301e-32
1.334269e-32
5.024525e-33
1.727855e-33
4.431890e-34
2.138523e-35
-2.014808e-36
-1.217001e-36
-6.489927e-37
-5.048391e-37
-3.210540e-37
9.999006e-01
1.000099e+00
9.863130e-01
8.523195e-01
5.807818e-01
2.961343e-01
9.879967e-02
2.186856e-02
6.552932e-04
1.672487e-04
1.390606e-04
9.191492e-05
4.092908e-05
7.411325e-06
-2.615148e-07
-3.189311e-07
-2.184505e-07
-6.069750e-08
-4.470702e-10
5.383870e-10
4.027684e-10
1.654053e-10
7.318336e-11
3.390716e-11
1.333470e-11
1.778769e-12
-8.931224e-14
-4.065895e-14
-1.305374e-14
-2.973783e-16
-3.118768e-16
1.521127e-15
1.534219e-15
7.966798e-16
3.308387e-16
1.247837e-16
3.414414e-17
3.535170e-18
-1.016190e-18
-6.116254e-19
-3.222262e-19
-1.363528e-19
-5.636152e-20
-2.175287e-20
-8.308928e-21
-3.096543e-21
-1.210097e-21
-4.274460e-22
-3.787016e-23
1.775847e-24
1.031531e-24
3.714569e-25
-2.336472e-25
-1.913397e-25
-9.898002e-26
-3.280389e-26
-1.725406e-26
-1.224375e-26
-8.830782e-27
-5.680801e-27
-3.103977e-27
-1.300616e-27
-6.593741e-28
-3.368443e-28
-1.570957e-28
-6.984138e-29
-2.994600e-29
-1.241129e-29
-4.965647e-30
-1.898625e-30
-6.114977e-31
-1.077600e-31
3.244425e-33
1.220475e-33
6.593567e-34
2.371745e-34
9.562101e-35
5.236088e-35
1.807633e-35
1.360914e-37
9.999683e-01
1.000032e+00
1.000311e+00
9.652896e-01
8.295796e-01
5.646448e-01
3.365333e-01
1.267014e-01
3.481176e-02
2.641631e-03
-3.133829e-05
6.833845e-05
6.383753e-05
4.583320e-05
2.021996e-05
3.328906e-06
-2.951297e-07
-2.010555e-07
-1.157742e-07
-5.099203e-08
-2.232295e-08
-9.916642e-09
-3.567978e-09
-2.406627e-10
2.079215e-11
1.550599e-11
6.207087e-12
3.328691e-14
-4.180962e-14
-3.615151e-14
-1.151316e-14
2.269311e-16
-9.259932e-16
3.495190e-16
2.846911e-16
1.703810e-16
9.191252e-17
4.224152e-17
1.477391e-17
3.138626e-18
3.024380e-19
-8.475094e-20
-4.218052e-20
-9.296601e-21
5.402365e-22
4.825710e-22
-4.925786e-22
-5.696263e-22
-4.627929e-22
-1.893330e-22
-9.397364e-23
-4.666800e-23
-2.354804e-23
-1.202757e-23
-6.044091e-24
-2.982252e-24
-1.152072e-24
-2.099155e-25
-1.112907e-27
-2.163723e-27
-2.348722e-27
-2.059896e-27
-9.974569e-28
-2.953437e-28
-1.421781e-28
4.271055e-29
1.809684e-29
-4.042985e-30
-2.739628e-30
-2.567267e-30
-1.511455e-30
-7.379999e-31
-3.018113e-31
-1.056377e-31
-3.502990e-32
-1.200864e-32
-4.413247e-33
-8.142113e-34
1.243252e-35
2.881752e-35
9.999956e-01
1.000004e+00
1.000030e+00
9.984068e-01
9.485364e-01
8.111694e-01
5.426649e-01
3.576597e-01
1.479534e-01
5.012848e-02
9.728090e-03
1.013768e-04
1.878707e-05
3.610257e-05
3.380993e-05
2.210755e-05
1.092577e-05
4.706817e-06
2.006333e-06
7.884500e-07
1.504111e-07
-1.124305e-08
-7.456948e-09
-4.808318e-09
-1.272415e-09
5.947093e-13
1.218496e-11
1.041294e-11
4.560840e-12
1.971098e-12
8.601342e-13
3.815320e-13
1.631643e-13
6.125525e-14
6.646537e-15
2.263193e-16
-1.340257e-16
-7.436837e-17
-3.299498e-17
-1.697455e-17
-8.828099e-18
-4.297405e-18
-1.994425e-18
-8.795329e-19
-3.337961e-19
-6.860357e-20
7.724176e-22
-4.320009e-22
-4.416408e-22
-3.503969e-22
-5.583402e-23
-4.142369e-23
1.802493e-23
-2.661616e-24
-5.859647e-24
-2.463512e-24
-2.157127e-24
-1.518544e-24
-7.546571e-25
-2.468114e-25
-1.847649e-26
3.703648e-27
4.394835e-30
-6.028793e-27
-5.068680e-27
-2.547923e-27
-1.214065e-27
-4.521346e-28
-7.461034e-29
3.757364e-30
-4.914905e-31
-3.644433e-31
-2.386440e-31
1.098427e-31
1.721914e-32
1.997870e-33
-9.546034e-34
-1.120152e-33
-2.482037e-33
-1.564943e-33
9.999999e-01
1.000000e+00
1.000004e+00
1.000032e+00
9.920665e-01
9.348987e-01
7.949525e-01
5.168421e-01
3.729944e-01
1.556364e-01
5.838135e-02
1.609478e-02
2.127088e-03
7.774592e-05
2.668680e-05
2.168882e-05
1.050535e-05
4.465185e-06
2.016723e-06
1.184265e-06
8.583498e-07
3.571575e-07
5.256276e-08
-3.835663e-09
-4.375744e-09
-2.673171e-09
-1.163277e-09
-5.019505e-10
-2.157033e-10
-9.331889e-11
-3.581261e-11
-7.698059e-12
1.616177e-14
1.127766e-13
7.629841e-14
3.437364e-14
1.462242e-14
6.385289e-15
2.809330e-15
1.236424e-15
5.512487e-16
2.099646e-16
5.428972e-17
-6.590647e-19
-7.141529e-19
-4.341984e-19
-2.037030e-19
-4.738696e-20
-5.517429e-21
-3.109549e-22
-1.336988e-21
-1.604818e-21
-1.060748e-21
-5.221668e-22
-2.024430e-22
-3.557531e-23
-1.426522e-24
-1.318762e-24
-7.667629e-25
-5.830538e-25
-3.503933e-25
-1.755765e-25
-3.587502e-26
-3.331283e-27
-4.562244e-27
-1.926981e-27
-1.202600e-27
-9.138088e-28
-5.588981e-28
-2.583559e-28
-1.074378e-28
-4.271037e-29
-1.604409e-29
-6.034058e-30
-2.122049e-30
-7.316476e-31
-1.440061e-31
-3.655014e-33
-4.540770e-34
-1.262706e-33
9.999998e-01
1.000000e+00
9.999998e-01
1.000025e+00
9.999781e-01
9.848467e-01
9.217963e-01
7.795335e-01
5.213298e-01
3.785108e-01
1.649892e-01
6.674303e-02
2.051553e-02
4.247248e-03
3.724791e-04
7.617378e-05
4.336109e-05
2.463933e-05
9.531031e-06
2.127398e-06
8.326432e-07
6.893681e-07
4.186410e-07
2.067499e-07
8.576991e-08
3.564731e-08
1.466233e-08
6.252800e-09
1.771446e-09
-6.579299e-11
-5.974745e-11
-3.917526e-11
-2.038810e-11
-8.660888e-12
-3.675543e-12
-1.568287e-12
-6.734135e-13
-2.892518e-13
-1.270395e-13
-4.188690e-14
-4.869098e-15
1.543752e-16
2.347442e-16
1.338256e-16
3.545137e-17
2.872160e-19
-2.196698e-19
-1.240027e-19
-1.886559e-20
-6.900460e-22
-7.033771e-22
-1.446054e-21
-9.394262e-22
-4.624779e-22
-3.702123e-22
-2.484705e-22
-1.237805e-22
-4.182527e-23
-4.440145e-24
4.387345e-26
-2.554112e-25
-1.713313e-25
-1.803979e-25
-1.499640e-25
-8.572711e-26
-3.206022e-26
-2.859016e-27
-7.150618e-29
-4.573736e-28
-7.109830e-29
-8.737165e-29
-1.267327e-29
-4.303445e-30
-3.630526e-30
-1.921730e-30
-1.110196e-30
-5.819730e-31
-2.581044e-31
-1.030152e-31
-5.244309e-32
9.999998e-01
1.000000e+00
1.000000e+00
1.000010e+00
1.000025e+00
9.988736e-01
9.786223e-01
9.079567e-01
7.698449e-01
5.221865e-01
3.810841e-01
1.772158e-01
7.569700e-02
2.537459e-02
5.880458e-03
4.272697e-04
4.701578e-05
2.944603e-05
2.428216e-05
1.339930e-05
3.794485e-06
6.912314e-07
4.145898e-07
2.100608e-07
8.936865e-08
3.435147e-08
1.490463e-08
6.488635e-09
4.863621e-09
2.772595e-09
1.170201e-09
4.821132e-10
1.935184e-10
7.645141e-11
2.984461e-11
1.155510e-11
4.704676e-12
1.249275e-12
-1.168598e-13
-9.995154e-14
-6.073312e-14
-2.552034e-14
-3.433505e-15
1.132604e-16
1.208553e-16
5.752363e-17
4.192354e-18
2.079849e-21
-2.318124e-19
-1.455464e-19
-6.414159e-20
-2.848952e-20
-1.249158e-20
-3.486438e-21
-3.304655e-22
-2.528103e-22
-1.018797e-22
-8.897408e-23
-5.809273e-23
-2.603276e-23
-7.961353e-24
-6.682115e-25
-1.771191e-25
-1.315639e-25
-8.646290e-26
-7.979955e-26
-5.572650e-26
-2.801420e-26
-1.333215e-26
-6.184573e-27
-2.686706e-27
-1.152414e-27
-4.657380e-28
-1.584649e-28
-3.048273e-29
-3.759941e-31
-5.137756e-31
9.762098e-33
-3.254040e-32
-4.301094e-32
9.999999e-01
1.000000e+00
1.000000e+00
1.000001e+00
1.000016e+00
1.000030e+00
9.972328e-01
9.709807e-01
8.969205e-01
7.615461e-01
5.236818e-01
3.740832e-01
1.874792e-01
8.579821e-02
3.195996e-02
8.876819e-03
1.235938e-03
5.683949e-05
2.439071e-05
2.120795e-05
1.564855e-05
6.928944e-06
1.911458e-06
6.656132e-07
3.948058e-07
2.169313e-07
9.745556e-08
2.565243e-08
4.986395e-09
2.689893e-09
1.106347e-09
3.335556e-10
1.406918e-10
5.473076e-11
2.758493e-11
5.194564e-12
4.625431e-12
3.601765e-12
2.011925e-12
4.179674e-13
-5.625961e-14
-4.726874e-14
-3.219559e-14
-1.091597e-14
-5.097736e-16
1.822071e-16
8.123116e-17
4.031471e-17
1.655484e-17
6.583571e-18
1.345877e-18
-4.651268e-20
-2.002929e-20
-1.433955e-20
-7.607588e-21
-3.756347e-21
-1.053258e-21
-1.121062e-22
-5.391769e-23
-3.849861e-23
-2.288284e-23
-1.192322e-23
-5.089525e-24
-1.962145e-24
-2.403276e-25
-7.469516e-26
-5.374104e-26
-1.424480e-26
-1.249055e-26
-6.078301e-27
-1.493525e-27
-9.933318e-28
-6.088710e-28
-3.307790e-28
-1.754779e-28
-7.388116e-29
-2.680764e-29
-1.012053e-29
-3.879227e-30
-1.014392e-30
1.000000e+00
1.000000e+00
1.000000e+00
1.000000e+00
1.000006e+00
1.000009e+00
1.000029e+00
9.942575e-01
9.638239e-01
8.860855e-01
7.588660e-01
5.118785e-01
3.893154e-01
1.921242e-01
9.239822e-02
3.719427e-02
1.167578e-02
2.308225e-03
5.555376e-05
2.017911e-05
1.634931e-05
1.300480e-05
7.261567e-06
2.101803e-06
4.129245e-07
2.109418e-07
1.752933e-07
1.163796e-07
6.096869e-08
2.849184e-08
1.358172e-08
6.463933e-09
2.975981e-09
1.355290e-09
6.217612e-10
2.051133e-10
2.158749e-11
2.162422e-12
2.498242e-12
1.927828e-12
9.765668e-13
1.616236e-13
-3.622087e-14
-2.634386e-14
-1.528803e-14
-6.750251e-15
-2.911902e-15
-7.542057e-16
4.489321e-18
8.594164e-18
6.697147e-18
3.415800e-18
1.474791e-18
5.760147e-19
7.802385e-20
-1.743179e-21
-2.649039e-21
-1.620859e-21
-3.976528e-22
-4.299296e-23
-1.178399e-23
-1.018434e-23
-4.007329e-24
-3.875171e-24
-2.809290e-24
-1.402350e-24
-7.642005e-25
-4.033446e-25
-1.990137e-25
-9.488475e-26
-3.757804e-26
-1.059689e-26
-4.876629e-28
-2.938333e-28
-1.741438e-28
-3.217873e-29
-8.653259e-30
-5.963380e-30
-3.749514e-30
-2.617331e-30
1.000000e+00
1.000000e+00
1.000000e+00
1.000000e+00
1.000002e+00
1.000006e+00
1.000008e+00
9.997490e-01
9.914332e-01
9.548147e-01
8.817362e-01
7.453845e-01
5.158950e-01
3.938063e-01
1.986599e-01
9.892148e-02
4.199232e-02
1.452888e-02
3.624523e-03
3.384153e-04
1.875493e-05
1.613410e-05
1.299088e-05
9.530317e-06
4.109124e-06
8.651908e-07
1.392770e-07
9.809657e-08
6.040088e-08
2.384409e-08
1.014436e-08
5.790254e-09
2.888820e-09
1.317514e-09
6.397337e-10
4.999086e-10
2.812884e-10
7.506507e-11
4.100389e-12
1.696264e-12
1.371043e-12
1.045300e-12
5.504095e-13
2.404242e-13
7.834992e-14
2.063679e-15
-3.233843e-15
-2.642450e-15
-1.469004e-15
-6.639357e-16
-2.926547e-16
-7.061814e-17
2.234987e-18
1.044575e-18
7.118175e-19
2.253851e-19
-3.212052e-22
-2.309369e-21
-1.967225e-21
-1.071288e-21
-4.786010e-22
-1.981298e-22
-4.414357e-23
-3.798620e-24
-2.427948e-24
-5.852315e-25
-6.733570e-25
-2.674366e-25
-2.002194e-25
-9.579432e-26
-7.389123e-26
-4.539067e-26
-2.389235e-26
-9.889582e-27
-3.817685e-27
-1.534519e-27
-6.252920e-28
-2.089833e-28
-3.231976e-29
-2.920284e-30
1.000000e+00
1.000000e+00
1.000000e+00
1.000000e+00
1.000000e+00
1.000002e+00
1.000007e+00
9.999067e-01
9.998612e-01
9.863295e-01
9.508390e-01
8.715466e-01
7.384496e-01
5.161549e-01
3.972158e-01
2.052181e-01
1.052218e-01
4.639870e-02
1.745644e-02
5.011967e-03
5.991940e-04
5.892678e-06
7.417801e-06
9.271275e-06
7.938304e-06
5.128833e-06
2.558985e-06
1.192617e-06
5.695268e-07
2.765256e-07
1.333192e-07
6.232183e-08
3.070201e-08
1.115232e-08
2.064647e-09
4.925726e-10
3.982182e-10
2.900993e-10
1.367904e-10
2.930195e-11
1.742994e-12
7.832596e-13
5.579077e-13
1.869640e-13
1.713428e-13
1.042033e-13
4.660350e-14
1.901205e-14
5.546568e-15
-2.873444e-16
-3.362754e-16
-2.849044e-16
-1.612307e-16
-4.957699e-17
2.906738e-19
5.004925e-19
4.202053e-19
1.832353e-19
6.153188e-20
1.625990e-20
-5.920249e-22
-2.946292e-22
-2.048933e-22
-9.601917e-23
-4.661919e-23
-2.281595e-23
-1.112064e-23
-5.358436e-24
-1.891717e-24
-2.752959e-25
-6.624199e-26
-3.900410e-26
-2.213036e-26
-6.631636e-27
-3.773064e-27
-9.019054e-28
-5.518816e-28
-3.965821e-28
-2.243009e-28
-1.076735e-28
1.000000e+00
1.000000e+00
1.000000e+00
1.000000e+00
1.000000e+00
1.000000e+00
1.000004e+00
9.999622e-01
9.999656e-01
9.977171e-01
9.838808e-01
9.447213e-01
8.634967e-01
7.326379e-01
5.157640e-01
4.002243e-01
2.116111e-01
1.117325e-01
5.057077e-02
2.040241e-02
7.032710e-03
1.707239e-03
2.224780e-04
1.532817e-05
6.374679e-06
4.530522e-06
9.237277e-07
1.009587e-06
5.323949e-07
2.068763e-07
9.528614e-08
2.563204e-08
2.928712e-08
2.525342e-08
1.522285e-08
4.767752e-09
5.096182e-10
2.332345e-10
2.115423e-10
1.455610e-10
7.369966e-11
3.452315e-11
1.323223e-11
1.843782e-12
1.062909e-13
8.779195e-14
3.953423e-14
1.969860e-14
1.357332e-14
7.743340e-15
3.112549e-15
7.067534e-16
-1.431979e-16
-1.336728e-16
-7.907836e-17
-3.592116e-17
-1.043023e-17
1.794254e-19
1.687332e-19
9.223797e-20
3.970896e-20
1.601335e-20
6.981437e-21
3.119439e-21
1.404583e-21
5.996476e-22
1.228159e-22
-2.924839e-24
-4.784578e-24
-3.237358e-24
-1.527316e-24
-6.850407e-25
-3.117203e-25
-1.339018e-25
-5.464191e-26
-2.104543e-26
-5.221512e-27
-3.928990e-28
-1.697199e-28
-1.332859e-28
1.000000e+00
1.000000e+00
1.000000e+00
1.000000e+00
1.000000e+00
1.000000e+00
1.000002e+00
9.999848e-01
9.999906e-01
9.999488e-01
9.963095e-01
9.802805e-01
9.386978e-01
8.559006e-01
7.276312e-01
5.149872e-01
4.022934e-01
2.167424e-01
1.189932e-01
5.370432e-02
2.138496e-02
7.339229e-03
2.230860e-03
7.260257e-04
3.162196e-04
1.402267e-04
6.236711e-05
2.851335e-05
1.309008e-05
5.848145e-06
2.721115e-06
8.984528e-07
1.175020e-07
2.530816e-08
1.981921e-08
1.496990e-08
7.966415e-09
2.089116e-09
2.143635e-10
1.308121e-10
5.325601e-11
3.498425e-11
2.709240e-11
1.685799e-11
7.928009e-12
3.699515e-12
1.180724e-12
4.847589e-14
5.079701e-15
4.206444e-15
3.714395e-15
2.576918e-15
1.324261e-15
4.089704e-16
3.011374e-17
-3.579653e-17
-3.045531e-17
-1.747335e-17
-7.611306e-18
-3.338923e-18
-1.241316e-18
-5.128825e-19
-2.198340e-19
-9.417012e-20
-1.821173e-20
4.984952e-22
4.919782e-22
3.247225e-22
1.429859e-22
6.020227e-23
2.488311e-23
1.031730e-23
4.132250e-24
9.686710e-25
-5.868923e-26
-3.391729e-26
-1.994325e-26
-9.670875e-27
-1.910734e-27
-1.448486e-28
1.000000e+00
1.000000e+00
1.000000e+00
1.000000e+00
1.000000e+00
1.000000e+00
1.000001e+00
9.999936e-01
9.999933e-01
9.999960e-01
9.996892e-01
9.947961e-01
9.764265e-01
9.334761e-01
8.476005e-01
7.249840e-01
5.158393e-01
4.044738e-01
2.192313e-01
1.311629e-01
6.150535e-02
2.462749e-02
8.067365e-03
1.893996e-03
3.004082e-04
1.379119e-04
6.420338e-05
2.916909e-05
1.259256e-05
5.005524e-06
2.744922e-06
2.246183e-06
1.229972e-06
3.181079e-07
1.518795e-08
1.502560e-08
1.154462e-08
8.174633e-09
4.315274e-09
1.983188e-09
8.152736e-10
1.627117e-10
1.758225e-11
1.682084e-11
6.813578e-12
3.604419e-12
2.949734e-12
1.843782e-12
7.098068e-13
1.305015e-13
2.011142e-15
1.577606e-15
1.025387e-15
8.641105e-16
4.737269e-16
1.996231e-16
5.805601e-17
1.141231e-17
-8.489746e-19
-2.674699e-18
-1.796043e-18
-5.474000e-19
-2.214171e-19
-1.108048e-19
-8.180979e-20
-4.403662e-20
-2.053567e-20
-9.378432e-21
-4.132254e-21
-1.805209e-21
-6.556244e-22
-1.059623e-22
6.774268e-24
3.862101e-24
2.196195e-24
8.110278e-25
1.066370e-26
-9.318954e-27
-8.408067e-27
-3.702952e-27
1.000000e+00
1.000000e+00
1.000000e+00
1.000000e+00
1.000000e+00
1.000000e+00
1.000000e+00
9.999985e-01
9.999947e-01
9.999951e-01
9.999924e-01
9.992715e-01
9.929945e-01
9.724152e-01
9.302076e-01
8.319004e-01
7.228649e-01
5.195171e-01
4.071287e-01
2.222966e-01
1.368175e-01
6.857791e-02
3.013771e-02
1.134805e-02
3.518901e-03
9.681608e-04
4.709405e-04
2.319887e-04
1.159949e-04
4.198979e-05
8.106969e-06
2.188253e-06
1.842900e-06
1.344417e-06
6.006526e-07
1.384481e-07
1.168056e-08
8.347795e-09
3.856601e-09
1.931806e-09
1.539575e-09
9.921520e-10
4.896261e-10
2.375759e-10
8.609291e-11
1.240391e-11
1.480305e-12
1.411487e-12
1.256763e-12
8.813893e-13
4.281707e-13
1.533744e-13
1.847202e-14
-2.223418e-16
-1.575566e-16
2.974876e-17
3.293846e-17
2.296525e-18
-1.072003e-17
-8.183315e-18
-5.382595e-18
-3.162289e-18
-1.287198e-18
-2.686553e-19
-6.670143e-20
-2.794525e-20
-1.813033e-20
-8.579614e-21
-3.480403e-21
-1.846669e-21
-1.270690e-21
-7.924215e-22
-3.607450e-22
-7.758576e-23
3.019959e-24
1.747258e-24
1.232096e-24
5.572688e-25
2.342183e-25
6.617410e-26
1.000000e+00
1.000000e+00
1.000000e+00
1.000000e+00
1.000000e+00
1.000000e+00
1.000000e+00
1.000000e+00
9.999973e-01
9.999958e-01
9.999959e-01
9.999429e-01
9.990025e-01
9.902169e-01
9.711879e-01
9.210181e-01
8.231806e-01
7.195926e-01
5.218693e-01
4.078700e-01
2.281178e-01
1.366018e-01
6.948116e-02
3.123379e-02
1.178084e-02
3.401313e-03
5.685065e-04
2.278033e-04
1.221926e-04
9.930988e-05
5.612294e-05
1.556330e-05
1.915617e-06
1.181428e-06
1.010136e-06
6.768242e-07
3.430633e-07
1.571900e-07
5.905665e-08
1.017434e-08
9.243998e-10
7.645670e-10
4.878036e-10
2.372450e-10
1.962011e-10
1.192717e-10
5.693161e-11
1.735820e-11
1.343125e-12
8.709804e-13
4.328230e-13
3.369800e-13
2.114772e-13
9.728489e-14
4.243965e-14
1.839642e-14
8.004597e-15
3.499102e-15
1.519058e-15
6.808474e-16
2.082676e-16
7.120889e-18
-2.676466e-18
-1.929023e-18
-9.600133e-19
-4.603365e-19
-2.198391e-19
-1.057529e-19
-5.078735e-20
-1.577293e-20
-1.267746e-21
-7.474419e-22
-5.493769e-22
-3.574348e-22
-1.856152e-22
-8.037714e-23
-2.827530e-23
-3.333431e-24
4.257130e-25
2.107519e-25
1.000000e+00
1.000000e+00
1.000000e+00
1.000000e+00
1.000000e+00
1.000000e+00
1.000000e+00
1.000000e+00
9.999995e-01
9.999972e-01
9.999975e-01
9.999753e-01
9.999521e-01
9.975076e-01
9.896949e-01
9.672006e-01
9.135177e-01
8.160771e-01
7.166739e-01
5.215406e-01
4.107976e-01
2.332058e-01
1.463351e-01
7.661286e-02
3.645153e-02
1.522665e-02
5.253816e-03
1.324462e-03
3.026190e-04
1.023439e-04
8.305603e-05
6.326058e-05
3.084937e-05
7.962174e-06
9.729127e-07
5.078588e-07
3.439435e-07
1.527272e-07
1.173752e-07
7.599891e-08
3.681159e-08
1.744450e-08
5.812414e-09
7.025060e-10
1.729116e-10
9.425393e-11
5.737774e-11
4.736639e-11
2.978474e-11
1.124078e-11
1.835121e-12
2.568951e-13
2.081746e-13
3.899202e-14
3.078851e-14
4.400175e-15
6.017254e-15
2.431993e-15
1.399164e-15
6.861114e-16
5.396163e-16
3.120218e-16
1.371679e-16
5.777881e-17
2.406896e-17
1.042759e-17
3.138503e-18
3.859583e-20
-5.176517e-20
-4.960837e-20
-2.708321e-20
-7.038326e-21
-5.393507e-22
-2.795534e-22
-1.693053e-22
-7.209897e-23
-5.399324e-23
-3.442348e-23
-1.692571e-23
-6.311523e-24
1.000000e+00
1.000000e+00
1.000000e+00
1.000000e+00
1.000000e+00
1.000000e+00
1.000000e+00
1.000000e+00
1.000000e+00
9.999985e-01
9.999988e-01
9.999882e-01
9.999882e-01
9.996098e-01
9.969530e-01
9.879760e-01
9.630008e-01
9.062590e-01
8.112816e-01
7.120022e-01
5.210981e-01
4.143922e-01
2.385695e-01
1.469167e-01
7.673317e-02
3.695729e-02
1.603129e-02
5.935146e-03
1.825402e-03
4.474731e-04
9.757167e-05
6.352053e-05
4.822334e-05
3.187384e-05
1.513526e-05
5.917472e-06
2.644833e-06
7.160451e-07
1.046310e-07
4.652486e-08
2.766128e-08
1.739478e-08
1.396354e-08
8.427971e-09
4.036411e-09
1.370384e-09
1.297558e-10
2.697696e-11
2.819843e-11
2.356388e-11
1.508747e-11
7.272064e-12
3.370080e-12
1.575763e-12
7.123615e-13
3.284595e-13
1.470001e-13
6.965742e-14
2.295997e-14
2.269528e-15
3.046993e-16
1.887785e-16
2.109587e-17
1.032805e-17
2.039705e-17
1.064682e-17
7.965892e-18
4.580451e-18
1.252407e-18
-5.223997e-20
-3.694049e-20
-2.771845e-20
-1.424005e-20
-6.559234e-21
-2.930493e-21
-7.385741e-22
-7.181482e-23
-9.793685e-24
-1.004626e-23
-5.532376e-24
1.000000e+00
1.000000e+00
1.000000e+00
1.000000e+00
1.000000e+00
1.000000e+00
1.000000e+00
1.000000e+00
1.000000e+00
9.999994e-01
9.999994e-01
9.999941e-01
9.999929e-01
9.999838e-01
9.993628e-01
9.962202e-01
9.860043e-01
9.586358e-01
8.993392e-01
8.088512e-01
7.067338e-01
5.196888e-01
4.154664e-01
2.429542e-01
1.591161e-01
8.340148e-02
4.027351e-02
1.765890e-02
6.907957e-03
2.345584e-03
6.713541e-04
1.647675e-04
6.010627e-05
3.822799e-05
2.405875e-05
1.132142e-05
4.392683e-06
2.850718e-06
1.485736e-06
7.279225e-07
2.948479e-07
6.694423e-08
1.118017e-08
6.938259e-09
4.168934e-09
3.389372e-09
2.120946e-09
8.270789e-10
1.388992e-10
2.149279e-11
1.459903e-11
4.556280e-12
2.486256e-12
1.359415e-12
6.947125e-13
3.262090e-13
1.235936e-13
6.932458e-14
5.604538e-14
3.404285e-14
1.557126e-14
6.962974e-15
3.151023e-15
1.455036e-15
4.681450e-16
5.471368e-17
8.229778e-18
5.447673e-18
4.231400e-18
2.287876e-18
9.784796e-19
4.235731e-19
1.224691e-19
-3.466705e-21
-3.557542e-21
-2.994570e-21
-1.569465e-21
-6.961784e-22
-3.274176e-22
-1.288573e-22
1.000000e+00
1.000000e+00
1.000000e+00
1.000000e+00
1.000000e+00
1.000000e+00
1.000000e+00
1.000000e+00
1.000000e+00
9.999998e-01
9.999998e-01
9.999981e-01
9.999946e-01
9.999953e-01
9.999368e-01
9.991145e-01
9.953327e-01
9.838015e-01
9.547244e-01
8.885403e-01
8.115627e-01
7.049611e-01
5.185002e-01
4.165206e-01
2.444654e-01
1.649086e-01
8.849990e-02
4.341074e-02
1.933158e-02
7.750775e-03
2.744874e-03
8.301548e-04
2.270407e-04
7.739185e-05
4.381446e-05
2.897802e-05
1.384203e-05
3.582065e-06
1.504352e-06
7.466376e-07
5.654587e-07
3.630472e-07
1.918957e-07
6.883026e-08
1.023591e-08
2.319503e-09
2.104813e-09
1.640583e-09
1.039448e-09
4.921384e-10
2.290907e-10
1.085015e-10
5.041453e-11
2.329050e-11
1.069040e-11
5.109428e-12
1.751896e-12
2.061227e-13
1.807293e-14
3.147417e-14
1.200472e-14
4.854142e-15
3.052209e-15
1.439753e-15
1.135200e-15
6.433353e-16
1.827690e-16
5.481632e-18
3.353514e-18
6.101064e-19
3.276293e-19
3.726873e-19
3.251381e-19
1.894350e-19
7.923184e-20
3.229694e-20
1.308411e-20
5.318991e-21
2.195346e-21
9.840561e-22
1.000000e+00
1.000000e+00
1.000000e+00
1.000000e+00
1.000000e+00
1.000000e+00
1.000000e+00
1.000000e+00
1.000000e+00
9.999999e-01
9.999998e-01
9.999998e-01
9.999969e-01
9.999960e-01
9.999970e-01
9.998374e-01
9.989881e-01
9.937510e-01
9.846079e-01
9.402914e-01
8.937421e-01
7.989638e-01
7.032548e-01
5.214411e-01
4.170808e-01
2.478042e-01
1.704688e-01
9.364972e-02
4.706208e-02
2.143680e-02
8.831128e-03
3.232179e-03
1.020824e-03
2.753147e-04
7.622464e-05
3.959052e-05
2.987883e-05
1.968579e-05
9.406173e-06
3.024582e-06
6.046711e-07
3.594888e-07
1.950690e-07
1.562944e-07
9.938907e-08
4.117563e-08
8.511922e-09
1.786814e-09
9.042685e-10
3.813678e-10
2.330127e-10
8.633433e-11
5.031069e-11
1.825736e-11
8.244122e-12
4.967841e-12
4.186531e-12
2.548591e-12
1.228408e-12
5.458466e-13
2.528568e-13
1.181104e-13
3.878879e-14
5.920572e-15
9.246615e-16
8.792100e-16
6.566037e-16
3.468165e-16
1.556713e-16
7.149670e-17
2.264210e-17
1.745341e-18
6.832335e-21
1.487817e-19
6.356049e-20
1.152818e-20
8.396654e-21
4.893606e-21
1.147946e-21
3.124628e-22
1.000000e+00
1.000000e+00
1.000000e+00
1.000000e+00
1.000000e+00
1.000000e+00
1.000000e+00
1.000000e+00
1.000000e+00
1.000000e+00
9.999999e-01
9.999999e-01
9.999991e-01
9.999969e-01
9.999973e-01
9.999279e-01
9.999278e-01
9.968906e-01
9.968331e-01
9.755456e-01
9.436357e-01
8.871795e-01
7.906800e-01
7.010212e-01
5.218906e-01
4.173693e-01
2.502882e-01
1.743696e-01
9.762063e-02
5.031108e-02
2.348436e-02
9.960743e-03
3.816037e-03
1.292461e-03
3.719273e-04
8.433233e-05
3.057682e-05
2.003379e-05
1.452428e-05
9.642829e-06
4.933557e-06
1.817122e-06
5.251184e-07
1.591489e-07
9.230680e-08
7.718474e-08
5.030199e-08
2.529157e-08
1.175665e-08
5.582407e-09
2.640836e-09
1.238397e-09
5.835707e-10
2.848958e-10
1.007148e-10
1.433582e-11
3.620049e-12
2.521377e-12
1.225417e-12
3.647438e-13
2.229190e-13
1.160313e-13
9.439881e-14
5.228309e-14
1.496402e-14
1.227924e-15
6.464458e-16
3.292939e-16
1.255185e-16
7.030289e-17
5.730340e-17
3.427912e-17
1.510731e-17
6.569612e-18
2.886388e-18
1.275690e-18
5.683700e-19
2.537664e-19
1.122485e-19
5.337541e-20
1.000000e+00
1.000000e+00
1.000000e+00
1.000000e+00
1.000000e+00
1.000000e+00
1.000000e+00
1.000000e+00
1.000000e+00
1.000000e+00
1.000000e+00
9.999999e-01
9.999999e-01
9.999983e-01
9.999993e-01
9.999664e-01
1.000021e+00
9.986362e-01
9.986970e-01
9.924696e-01
9.749236e-01
9.412245e-01
8.823085e-01
7.836263e-01
6.994032e-01
5.244137e-01
4.205895e-01
2.545874e-01
1.790196e-01
1.014417e-01
5.355475e-02
2.548998e-02
1.100449e-02
4.336505e-03
1.565431e-03
5.137250e-04
1.491146e-04
4.550125e-05
1.869711e-05
1.153613e-05
7.659674e-06
4.150194e-06
2.296014e-06
1.155607e-06
4.201323e-07
7.657935e-08
4.062505e-08
2.510081e-08
1.143842e-08
5.700573e-09
2.279763e-09
9.478790e-10
5.022792e-10
2.796597e-10
2.301368e-10
1.424239e-10
6.820681e-11
3.153149e-11
1.482384e-11
7.337581e-12
2.453069e-12
4.312283e-13
8.254864e-14
7.816997e-14
5.497310e-14
2.957781e-14
1.324159e-14
6.232726e-15
2.125541e-15
2.288606e-16
5.233696e-17
2.952388e-17
1.141081e-17
5.650507e-18
2.743027e-18
4.197422e-19
3.701179e-19
1.501192e-19
9.529913e-20
4.950055e-20
1.000000e+00
1.000000e+00
1.000000e+00
1.000000e+00
1.000000e+00
1.000000e+00
1.000000e+00
1.000000e+00
1.000000e+00
1.000000e+00
1.000000e+00
1.000000e+00
1.000000e+00
9.999992e-01
9.999995e-01
9.999847e-01
1.000005e+00
9.993722e-01
9.993566e-01
9.979195e-01
9.904812e-01
9.730251e-01
9.372383e-01
8.796725e-01
7.714842e-01
6.917840e-01
5.232533e-01
4.221779e-01
2.585721e-01
1.840183e-01
1.048568e-01
5.702430e-02
2.784005e-02
1.220557e-02
4.829528e-03
1.742506e-03
5.768374e-04
1.825789e-04
6.047789e-05
2.373445e-05
1.253929e-05
7.727366e-06
3.638272e-06
1.684321e-06
1.074158e-06
6.679345e-07
3.392993e-07
1.721280e-07
8.711450e-08
4.515544e-08
2.143967e-08
1.077089e-08
4.350021e-09
9.434455e-10
1.906660e-10
1.145949e-10
5.040672e-11
3.028297e-11
1.308896e-11
7.475297e-12
5.912679e-12
3.189531e-12
9.239417e-13
9.859885e-14
3.841244e-14
2.720811e-14
1.349428e-14
6.333481e-15
5.146560e-15
3.127218e-15
1.408377e-15
6.385643e-16
2.885079e-16
1.281150e-16
5.766860e-17
2.635772e-17
1.174001e-17
5.588120e-18
1.814143e-18
2.786145e-19
1.000000e+00
1.000000e+00
1.000000e+00
1.000000e+00
1.000000e+00
1.000000e+00
1.000000e+00
1.000000e+00
1.000000e+00
1.000000e+00
1.000000e+00
1.000000e+00
1.000000e+00
9.999996e-01
9.999997e-01
9.999931e-01
1.000001e+00
9.997620e-01
9.995463e-01
9.994269e-01
9.969285e-01
9.892107e-01
9.704260e-01
9.337837e-01
8.782723e-01
7.661801e-01
6.869044e-01
5.219655e-01
4.232805e-01
2.619654e-01
1.899560e-01
1.067871e-01
5.992726e-02
3.035978e-02
1.379411e-02
5.613903e-03
2.049434e-03
6.798680e-04
2.148181e-04
7.196360e-05
2.741374e-05
1.376797e-05
9.929430e-06
4.531130e-06
1.513988e-06
6.934799e-07
3.396896e-07
1.556497e-07
8.201814e-08
4.547116e-08
2.216082e-08
1.078105e-08
8.698349e-09
5.543878e-09
2.786736e-09
1.316310e-09
6.547359e-10
3.229146e-10
1.143038e-10
2.449830e-11
5.982550e-12
4.959826e-12
3.408662e-12
1.832441e-12
8.334884e-13
3.953142e-13
1.409055e-13
1.786386e-14
5.243297e-15
3.021182e-15
1.371977e-15
4.592877e-16
2.437543e-16
1.295455e-16
3.791912e-17
2.144108e-17
7.747506e-18
5.141598e-18
4.461756e-18
2.330183e-18
1.000000e+00