# vtk DataFile Version 3.0
MUSCL
ASCII
DATASET STRUCTURED_POINTS
DIMENSIONS 80 80 1
ORIGIN 0 0 0
SPACING 0.0125 0.0125 1
POINT_DATA 6400
SCALARS Temperature double 1
LOOKUP_TABLE default
0.000000e+00
-6.740009e-01
-1.939378e-01
-2.456033e-02
-3.512042e-04
5.495570e-06
-1.424471e-06
-5.422517e-07
-1.799133e-07
-7.547077e-08
-3.139961e-08
-1.366603e-08
-6.371611e-09
-3.089883e-09
-1.334759e-09
-4.445653e-10
-5.914251e-12
-1.052057e-13
8.462932e-13
4.593522e-13
5.805385e-14
4.264550e-15
6.736857e-15
8.015066e-15
5.357834e-15
2.516810e-15
1.147809e-15
5.122763e-16
2.323236e-16
7.254263e-17
1.682264e-18
-1.596953e-19
-2.367107e-19
-1.154056e-19
-3.791143e-20
-6.694132e-21
-5.979718e-23
2.697416e-23
3.136404e-22
7.533575e-22
7.810268e-22
3.552064e-22
7.970954e-24
-4.164945e-24
-1.842392e-24
-6.974211e-25
-3.145581e-25
-1.341669e-25
-5.068400e-26
-1.710229e-26
-5.271775e-27
-1.518226e-27
-4.169186e-28
-1.119409e-28
-3.054079e-29
-8.601874e-30
-2.235739e-30
-9.409155e-32
1.284660e-33
9.237125e-33
6.863466e-33
4.552304e-33
5.257216e-34
-4.685531e-35
-3.180185e-35
-2.358461e-35
-1.065233e-35
-4.063091e-36
-1.641951e-36
-7.814253e-37
-4.055335e-37
-2.118614e-37
-1.069287e-37
-5.105684e-38
-2.283366e-38
-9.531073e-39
-3.710737e-39
-1.361408e-39
-4.001902e-40
4.196188e-42
1.325999e+00
6.740009e-01
1.939378e-01
2.456033e-02
3.512042e-04
-5.495570e-06
1.424471e-06
5.422517e-07
1.799133e-07
7.547077e-08
3.139961e-08
1.366603e-08
6.371611e-09
3.089883e-09
1.334759e-09
4.445653e-10
5.914251e-12
1.052057e-13
-8.462932e-13
-4.593522e-13
-5.805385e-14
-4.264550e-15
-6.736857e-15
-8.015066e-15
-5.357834e-15
-2.516810e-15
-1.147809e-15
-5.122763e-16
-2.323236e-16
-7.254263e-17
-1.682264e-18
1.596953e-19
2.367107e-19
1.154056e-19
3.791143e-20
6.694132e-21
5.979718e-23
-2.697416e-23
-3.136404e-22
-7.533575e-22
-7.810268e-22
-3.552064e-22
-7.970954e-24
4.164945e-24
1.842392e-24
6.974211e-25
3.145581e-25
1.341669e-25
5.068400e-26
1.710229e-26
5.271775e-27
1.518226e-27
4.169186e-28
1.119409e-28
3.054079e-29
8.601874e-30
2.235739e-30
9.409155e-32
-1.284660e-33
-9.237125e-33
-6.863466e-33
-4.552304e-33
-5.257216e-34
4.685531e-35
3.180185e-35
2.358461e-35
1.065233e-35
4.063091e-36
1.641951e-36
7.814253e-37
4.055335e-37
2.118614e-37
1.069287e-37
5.105684e-38
2.283366e-38
9.531073e-39
3.710737e-39
1.361408e-39
4.001902e-40
-4.196188e-42
1.041969e+00
9.580306e-01
5.985786e-01
2.398349e-01
5.881681e-02
3.805648e-03
-2.516282e-04
-6.504205e-05
-2.088775e-05
-8.737121e-06
-3.619704e-06
-1.487781e-06
-5.978537e-07
-1.411260e-07
1.325263e-09
9.285141e-10
7.539841e-10
2.761909e-10
1.238702e-12
-1.399164e-12
-3.758757e-13
1.344001e-14
1.670451e-14
-4.862291e-15
-1.614336e-15
-9.477060e-16
-3.269936e-16
-1.961104e-17
-2.312248e-16
-1.959456e-16
-1.157115e-16
-5.132693e-17
-1.806543e-17
-3.430284e-18
3.584297e-20
3.763659e-20
1.890728e-20
6.648361e-21
2.015356e-21
6.383946e-23
-8.093318e-22
-7.784110e-22
-5.811059e-22
-2.929507e-22
-1.479220e-22
-6.833233e-23
-2.915582e-23
-1.159533e-23
-4.323794e-24
-1.517184e-24
-5.020013e-25
-1.664752e-25
-5.057280e-26
-1.428559e-26
-3.544435e-27
-6.679648e-28
-1.070963e-30
2.034684e-30
1.977961e-30
1.195739e-30
5.994553e-31
8.651344e-32
-6.053692e-33
-4.753459e-33
-3.113717e-33
-1.679857e-33
-8.328304e-34
-3.976273e-34
-1.897397e-34
-9.325332e-35
-4.749246e-35
-2.446999e-35
-1.231151e-35
-5.881183e-36
-2.623787e-36
-1.091865e-36
-4.185144e-37
-1.150656e-37
-2.709491e-39
8.703214e-40
9.999846e-01
1.000015e+00
8.880295e-01
5.935172e-01
2.706440e-01
8.389175e-02
1.575123e-02
1.270045e-03
5.007187e-04
2.173324e-04
7.840513e-05
9.988080e-06
-5.623113e-07
-5.827308e-07
-3.621112e-07
-1.299800e-07
-8.110692e-09
-4.410912e-12
4.464679e-10
1.003007e-10
-3.567372e-12
-1.694250e-12
-8.667085e-13
-3.597555e-13
-1.524189e-13
-7.006415e-14
-2.159725e-14
-5.287904e-16
6.480001e-16
1.097822e-15
4.494660e-16
-5.595902e-17
-4.039202e-17
-2.383040e-17
-1.123584e-17
-4.351290e-18
-1.744586e-18
-7.052537e-19
-2.294282e-19
-3.755823e-20
1.617476e-21
2.290184e-22
-4.222930e-22
4.537599e-25
7.711865e-23
-3.101177e-24
-1.995287e-23
-1.091829e-23
-3.584927e-24
-1.151535e-24
-4.374015e-25
-3.958156e-26
-7.382440e-26
-3.034273e-26
-1.147219e-26
-4.017024e-27
-1.340303e-27
-3.745681e-28
-1.484253e-28
-4.446836e-29
8.792628e-31
6.934688e-31
5.972566e-31
3.530727e-31
2.025575e-31
1.079119e-31
5.420765e-32
2.642537e-32
1.291354e-32
6.432368e-33
3.228383e-33
1.585580e-33
7.425527e-34
3.274307e-34
1.332698e-34
3.958825e-35
1.412792e-36
-5.969356e-38
-1.313513e-37
-6.605417e-38
9.998851e-01
1.000115e+00
9.864197e-01
8.523294e-01
5.807955e-01
2.960360e-01
9.873912e-02
2.195323e-02
7.201518e-04
2.177883e-04
1.516973e-04
9.751834e-05
4.363748e-05
8.197122e-06
-3.442599e-07
-2.743021e-07
-1.932607e-07
-5.724390e-08
2.545558e-10
4.032644e-10
3.850330e-10
1.631598e-10
6.716646e-11
3.041333e-11
1.133906e-11
1.729061e-13
-1.569706e-14
-2.775719e-14
-6.738031e-15
8.176218e-16
1.407661e-15
1.122999e-15
5.039701e-16
2.220199e-16
9.903243e-17
3.121573e-17
2.632599e-18
-8.338954e-19
-6.768416e-19
-4.109191e-19
-2.077937e-19
-9.612074e-20
-4.385376e-20
-1.979244e-20
-8.788080e-21
-3.822997e-21
-1.608367e-21
-6.532781e-22
-2.573493e-22
-8.116627e-23
-2.190015e-23
-3.209939e-24
5.445923e-26
9.172361e-26
4.438242e-26
1.210755e-26
2.835392e-27
7.782949e-28
5.551707e-29
-8.630113e-29
-8.751555e-29
-5.058257e-29
-2.771359e-29
-1.517606e-29
-8.121905e-30
-4.258068e-30
-2.222161e-30
-1.171448e-30
-6.216435e-31
-3.246299e-31
-1.631964e-31
-7.606109e-32
-3.118873e-32
-8.754407e-33
-2.549494e-34
1.410024e-34
4.634183e-35
1.939816e-35
7.199270e-36
2.771804e-36
9.999674e-01
1.000033e+00
1.000321e+00
9.652847e-01
8.296202e-01
5.646145e-01
3.365968e-01
1.268157e-01
3.488931e-02
2.732262e-03
-2.666219e-05
7.635938e-05
7.043179e-05
4.754523e-05
2.123782e-05
3.810861e-06
-2.737569e-07
-1.760012e-07
-1.075602e-07
-4.876380e-08
-2.179126e-08
-9.894159e-09
-3.168506e-09
-2.343610e-11
1.014961e-11
1.440220e-11
6.772863e-12
7.541348e-14
-9.445223e-14
-2.139222e-14
-6.236948e-15
-2.034114e-15
-5.743071e-16
-8.552845e-17
9.645599e-17
8.354632e-17
5.279806e-17
2.796219e-17
1.449521e-17
7.367145e-18
3.598568e-18
1.708682e-18
7.943430e-19
3.616587e-19
1.616137e-19
6.915501e-20
1.754317e-20
-2.163971e-22
-3.094583e-22
-1.967431e-22
-9.994855e-23
-4.532422e-23
-1.668295e-23
-5.953851e-24
-2.143049e-24
-8.298860e-25
-3.540907e-25
-1.088819e-25
-4.365319e-27
-1.560956e-29
2.644091e-28
1.235542e-28
1.631611e-29
3.468628e-30
1.091761e-30
-1.790495e-30
-1.607496e-30
-7.409264e-31
-3.582814e-31
-3.110025e-31
-1.677791e-31
-9.844091e-32
-5.920238e-32
-3.181336e-32
-1.476285e-32
-5.372598e-33
-1.812515e-33
-2.859463e-34
1.304889e-35
4.820081e-36
9.999966e-01
1.000003e+00
1.000039e+00
9.984100e-01
9.485328e-01
8.111025e-01
5.426114e-01
3.576720e-01
1.479779e-01
5.013032e-02
9.707080e-03
2.855159e-04
2.159770e-05
4.484268e-05
3.998224e-05
2.500834e-05
1.238350e-05
5.073230e-06
2.088196e-06
8.261606e-07
1.613938e-07
-6.886429e-09
-7.675723e-09
-4.999931e-09
-1.302099e-09
1.568796e-11
1.095740e-11
9.169909e-12
4.365926e-12
1.872208e-12
7.814223e-13
3.344475e-13
1.250939e-13
2.526563e-14
8.244710e-17
-3.018715e-17
-1.622784e-17
2.723036e-18
6.731063e-18
6.412416e-18
4.355273e-19
-1.348255e-18
-1.499244e-18
-7.872456e-19
-2.039421e-19
2.467130e-20
4.658445e-20
3.612144e-20
1.537919e-20
6.194856e-21
2.242139e-21
7.540100e-22
2.436639e-22
7.554523e-23
2.167205e-23
6.054846e-24
1.234046e-24
1.078641e-25
-1.043770e-25
-8.808055e-26
-4.174512e-26
-1.923713e-26
-8.790667e-27
-3.984905e-27
-1.792566e-27
-8.020129e-28
-3.333014e-28
-1.198642e-28
-3.406986e-29
-6.263350e-30
-2.015531e-32
4.846666e-31
8.444438e-32
1.375302e-32
1.952520e-33
-2.613547e-33
-1.432034e-33
-1.650411e-33
-8.560137e-34
-3.267412e-34
9.999992e-01
1.000001e+00
1.000012e+00
1.000080e+00
9.920067e-01
9.348804e-01
7.949055e-01
5.167966e-01
3.729573e-01
1.555748e-01
5.840139e-02
1.605867e-02
2.173660e-03
8.588651e-05
3.339017e-05
2.411281e-05
1.230891e-05
5.027394e-06
2.037733e-06
1.107029e-06
8.134669e-07
3.472140e-07
4.701339e-08
-5.743012e-09
-4.381393e-09
-2.546288e-09
-1.149796e-09
-5.035177e-10
-2.165707e-10
-9.351201e-11
-3.823772e-11
-6.688260e-12
8.361787e-14
1.215251e-13
6.969185e-14
3.059108e-14
1.315113e-14
5.672459e-15
2.484146e-15
1.101205e-15
4.925480e-16
2.172606e-16
9.486758e-17
2.381873e-17
3.188575e-19
-1.245398e-19
-1.271869e-20
1.544492e-20
1.164518e-20
-8.646834e-21
-1.754708e-21
1.878267e-22
1.474579e-23
-1.056616e-22
-3.736098e-23
5.449304e-24
2.881320e-24
7.985633e-25
2.890267e-26
-6.287142e-26
-3.061559e-26
-1.865065e-26
5.012847e-27
2.054238e-27
-1.077414e-27
-7.774832e-28
-5.297116e-28
-3.091622e-28
-1.676467e-28
-8.495657e-29
-3.927524e-29
-1.707061e-29
-6.937922e-30
-2.608417e-30
-9.375744e-31
-2.863750e-31
-2.697507e-32
1.657464e-33
-2.839548e-34
-2.617689e-34
9.999990e-01
1.000001e+00
1.000001e+00
1.000028e+00
9.998965e-01
9.849889e-01
9.218809e-01
7.795800e-01
5.213383e-01
3.784920e-01
1.650053e-01
6.661193e-02
2.054848e-02
4.245404e-03
3.730485e-04
8.363287e-05
4.929548e-05
2.686229e-05
1.020716e-05
2.445196e-06
8.442198e-07
6.648852e-07
4.130949e-07
1.999568e-07
8.384409e-08
3.456181e-08
1.418979e-08
6.047116e-09
1.712706e-09
-5.383986e-11
-5.010708e-11
-3.751693e-11
-1.930772e-11
-8.440641e-12
-3.655498e-12
-1.578336e-12
-6.811514e-13
-2.937504e-13
-1.258010e-13
-5.522811e-14
-1.476733e-14
5.854272e-17
1.719490e-16
8.255306e-17
3.826564e-17
9.644471e-18
2.938363e-18
1.714927e-18
8.187501e-19
3.422190e-19
1.250276e-19
4.629197e-20
1.026936e-20
-3.416525e-24
-1.561808e-22
-1.438783e-22
-7.873321e-23
-4.075632e-23
-2.004511e-23
-9.360032e-24
-3.948172e-24
-1.388170e-24
-4.442442e-25
-1.751991e-25
-7.414035e-26
-6.539015e-27
1.544511e-27
3.782478e-28
4.141875e-29
-1.629402e-29
-1.586690e-29
-1.124500e-29
1.535021e-29
-6.377766e-31
-4.872497e-31
-3.210497e-31
-2.648056e-31
-1.366655e-31
-6.406463e-32
-3.227985e-32
9.999996e-01
1.000000e+00
9.999999e-01
1.000014e+00
1.000012e+00
9.988768e-01
9.787333e-01
9.081038e-01
7.699897e-01
5.222745e-01
3.811014e-01
1.771079e-01
7.573173e-02
2.534128e-02
5.875593e-03
4.447532e-04
4.969377e-05
3.243424e-05
2.551836e-05
1.403307e-05
4.202031e-06
7.184220e-07
4.175691e-07
2.000122e-07
8.257656e-08
3.550758e-08
1.396887e-08
6.034343e-09
4.726590e-09
2.684390e-09
1.122567e-09
4.616080e-10
1.904612e-10
7.941825e-11
3.324257e-11
1.378757e-11
5.934217e-12
1.644841e-12
-6.077629e-14
-5.974094e-14
-4.748925e-14
-2.489887e-14
-5.005878e-15
8.357302e-17
6.694770e-17
3.884439e-17
8.896870e-18
1.048767e-18
7.270226e-19
3.056793e-19
1.256486e-19
7.199908e-20
4.008619e-20
1.996201e-20
8.199572e-21
3.350913e-21
1.429804e-21
6.030577e-22
2.388931e-22
8.564142e-23
2.728162e-23
7.132798e-24
1.517987e-24
1.547118e-25
-2.369305e-26
-7.307936e-26
-7.113996e-26
-3.577856e-26
-1.651364e-26
-7.151582e-27
-3.000370e-27
-1.199621e-27
-4.955777e-28
-1.532577e-28
-2.298312e-29
-2.506869e-31
8.206333e-34
2.436804e-32
-2.092816e-32
-2.626093e-32
9.999998e-01
1.000000e+00
1.000000e+00
1.000002e+00
1.000014e+00
1.000021e+00
9.972800e-01
9.710822e-01
8.970837e-01
7.617273e-01
5.237197e-01
3.740866e-01
1.875335e-01
8.580740e-02
3.197829e-02
8.910547e-03
1.269147e-03
5.760509e-05
2.475938e-05
2.137477e-05
1.560612e-05
6.778585e-06
1.979075e-06
7.768642e-07
4.275880e-07
2.381321e-07
9.974362e-08
2.406521e-08
4.926998e-09
1.728390e-09
7.682452e-10
2.379146e-10
1.620971e-10
7.538743e-11
3.060304e-11
7.397317e-12
5.989013e-12
4.656037e-12
2.497811e-12
5.147635e-13
-4.813283e-14
-3.914784e-14
-2.776294e-14
-1.132085e-14
-1.487455e-15
9.618625e-17
5.104870e-17
2.919154e-17
1.343097e-17
5.945145e-18
1.682850e-18
8.115162e-20
3.704353e-20
1.639328e-20
8.447235e-21
5.037451e-21
2.034002e-21
6.096976e-22
2.185566e-22
6.067851e-23
1.524238e-23
5.695621e-24
5.004546e-25
-4.071485e-25
-3.148874e-25
-1.362369e-25
-7.490130e-27
1.066267e-26
-2.654872e-28
-4.130449e-27
-2.992240e-27
-1.156356e-27
-5.129036e-28
-3.221068e-28
-1.783831e-28
-6.584277e-29
-2.355126e-29
-7.584753e-30
-1.116529e-30
-1.401895e-32
9.999999e-01
1.000000e+00
1.000000e+00
1.000000e+00
1.000008e+00
1.000009e+00
9.999633e-01
9.942591e-01
9.639512e-01
8.862369e-01
7.589415e-01
5.119134e-01
3.893639e-01
1.921562e-01
9.243516e-02
3.724297e-02
1.171636e-02
2.345762e-03
6.941582e-05
1.263822e-05
1.674075e-05
1.369033e-05
6.835443e-06
1.801135e-06
3.971339e-07
2.382544e-07
1.944678e-07
1.275963e-07
6.505472e-08
3.039389e-08
1.402953e-08
6.497243e-09
2.964385e-09
1.361768e-09
6.564326e-10
2.234731e-10
2.983089e-11
5.170891e-12
3.497888e-12
2.591133e-12
1.245852e-12
2.278886e-13
-2.541967e-14
-2.279176e-14
-1.445834e-14
-6.859041e-15
-2.991092e-15
-7.837910e-16
6.734727e-18
7.070839e-18
5.670236e-18
2.975897e-18
1.261555e-18
5.580443e-19
1.628558e-19
6.808935e-21
1.539470e-21
4.900924e-21
2.788952e-21
1.244912e-21
5.984893e-22
1.652918e-22
3.628037e-24
-1.241355e-24
-1.572298e-24
-5.786428e-25
-8.922242e-26
-8.172393e-27
-3.954449e-27
-7.238474e-27
-8.354709e-27
-6.030054e-27
-1.597884e-27
-2.809375e-28
-1.305331e-28
-5.511167e-29
-2.438854e-29
-1.511597e-29
-8.690743e-30
-4.191289e-30
1.000000e+00
1.000000e+00
1.000000e+00
1.000000e+00
1.000002e+00
1.000006e+00
1.000010e+00
9.997659e-01
9.914877e-01
9.548923e-01
8.817860e-01
7.454122e-01
5.159219e-01
3.938334e-01
1.987012e-01
9.897947e-02
4.204037e-02
1.458237e-02
3.655881e-03
3.581223e-04
2.528592e-05
1.609567e-05
1.328765e-05
9.370604e-06
3.837820e-06
7.876728e-07
1.608054e-07
1.190584e-07
4.824536e-08
2.909068e-08
1.282759e-08
6.562214e-09
2.256671e-09
1.135243e-09
6.491718e-10
5.292029e-10
3.013455e-10
8.086514e-11
5.150236e-12
2.278220e-12
1.786325e-12
1.308862e-12
6.662494e-13
2.869505e-13
9.386661e-14
3.347319e-15
-2.893689e-15
-2.665745e-15
-1.502557e-15
-6.524189e-16
-2.895920e-16
-7.724162e-17
1.781181e-19
6.357065e-19
5.170809e-19
2.125854e-19
5.253265e-20
5.581398e-21
1.964230e-21
1.039201e-21
7.563364e-22
4.964459e-22
2.668543e-22
1.091737e-22
4.586643e-23
1.956187e-23
8.303421e-24
3.467898e-24
1.454976e-24
3.929537e-25
-7.306700e-28
-7.422147e-27
-7.104132e-27
-3.837902e-27
-2.073470e-27
-9.790392e-28
-2.997818e-28
-1.960432e-29
-7.479707e-30
-6.001973e-30
1.000000e+00
1.000000e+00
1.000000e+00
1.000000e+00
1.000000e+00
1.000002e+00
1.000008e+00
9.999098e-01
9.998716e-01
9.863591e-01
9.508690e-01
8.715615e-01
7.384502e-01
5.161681e-01
3.972441e-01
2.052751e-01
1.052739e-01
4.644903e-02
1.749677e-02
5.039181e-03
6.062151e-04
-5.092224e-07
7.333838e-06
8.869634e-06
7.690978e-06
4.965862e-06
2.469093e-06
1.180556e-06
5.698872e-07
2.788261e-07
1.323695e-07
6.440947e-08
3.139234e-08
1.203350e-08
2.608236e-09
5.175692e-10
4.434020e-10
3.237415e-10
1.505691e-10
3.266557e-11
2.146765e-12
8.022782e-14
5.325031e-13
2.617182e-13
2.085637e-13
1.253804e-13
5.708628e-14
2.347171e-14
7.590149e-15
1.743605e-16
-2.874300e-16
-2.593768e-16
-1.520678e-16
-4.573240e-17
3.485089e-19
7.166692e-19
3.653447e-19
1.687524e-19
7.543194e-20
1.947842e-20
1.019294e-21
3.358745e-22
1.928585e-22
9.193226e-23
4.113556e-23
1.774999e-23
7.176245e-24
3.244970e-24
1.969833e-24
1.176981e-24
6.106981e-25
2.273203e-25
7.866558e-26
2.351217e-26
5.233969e-27
5.578856e-28
-4.936608e-28
-4.352859e-28
-5.495561e-29
-4.309248e-30
1.000000e+00
1.000000e+00
1.000000e+00
1.000000e+00
1.000000e+00
1.000000e+00
1.000004e+00
9.999631e-01
9.999751e-01
9.977267e-01
9.839137e-01
9.447410e-01
8.634915e-01
7.326321e-01
5.157831e-01
4.002685e-01
2.116641e-01
1.117780e-01
5.061328e-02
2.043826e-02
7.058206e-03
1.729845e-03
2.214767e-04
1.644874e-05
-2.331608e-06
1.522809e-07
1.012480e-06
9.455037e-07
5.345241e-07
2.700599e-07
5.123010e-08
4.877488e-08
2.948419e-08
2.465771e-08
1.510430e-08
5.102019e-09
4.351337e-10
3.086300e-10
2.474389e-10
1.636851e-10
8.352851e-11
3.996421e-11
1.484293e-11
2.279894e-12
5.707341e-14
6.212169e-14
4.556226e-15
2.147193e-14
1.638496e-14
9.916652e-15
3.937535e-15
5.936730e-16
-1.650012e-16
-1.297427e-16
-7.474642e-17
-3.342944e-17
-9.388768e-18
9.295780e-20
8.914934e-20
7.716930e-20
4.127165e-20
1.805518e-20
7.876281e-21
3.449630e-21
1.524074e-21
6.804121e-22
2.950037e-22
6.934960e-23
1.451151e-24
8.528838e-25
5.831294e-25
-1.216430e-25
-4.378851e-26
9.151275e-27
5.758784e-27
1.271055e-27
-4.087179e-28
-6.684806e-28
-6.227358e-28
-2.735605e-28
1.000000e+00
1.000000e+00
1.000000e+00
1.000000e+00
1.000000e+00
1.000000e+00
1.000002e+00
9.999851e-01
9.999932e-01
9.999941e-01
9.963519e-01
9.802527e-01
9.386766e-01
8.558954e-01
7.276472e-01
5.150340e-01
4.023448e-01
2.167876e-01
1.190372e-01
5.374479e-02
2.142081e-02
7.360022e-03
2.237147e-03
7.300069e-04
3.157209e-04
1.408042e-04
6.253066e-05
2.796775e-05
1.272245e-05
5.724052e-06
2.741127e-06
8.785458e-07
1.168605e-07
1.960499e-08
1.975067e-08
1.561992e-08
8.259195e-09
2.180465e-09
2.053696e-10
1.315480e-10
5.510352e-11
3.533315e-11
3.067463e-11
1.947626e-11
9.028180e-12
4.287381e-12
1.526157e-12
2.042102e-13
1.849945e-15
9.142002e-15
7.074602e-15
4.442042e-15
2.261810e-15
7.860443e-16
8.353564e-17
-3.251981e-17
-2.878166e-17
-1.651416e-17
-7.153296e-18
-3.078518e-18
-1.318499e-18
-5.646254e-19
-2.407027e-19
-1.041695e-19
-4.012291e-20
-7.050102e-21
4.546066e-22
2.637744e-22
1.488481e-22
6.581568e-23
2.867608e-23
1.195141e-23
2.835499e-24
4.527656e-26
-1.451389e-26
-1.155374e-26
-4.586991e-27
-6.235037e-28
-6.024264e-28
-2.595371e-28
1.000000e+00
1.000000e+00
1.000000e+00
1.000000e+00
1.000000e+00
1.000000e+00
1.000001e+00
9.999939e-01
9.999934e-01
1.000003e+00
9.996826e-01
9.947812e-01
9.764168e-01
9.334764e-01
8.476169e-01
7.250261e-01
5.158914e-01
4.045155e-01
2.192766e-01
1.312034e-01
6.154824e-02
2.465832e-02
8.088097e-03
1.888703e-03
3.515204e-04
1.333429e-04
6.429397e-05
2.621983e-05
1.113676e-05
5.264508e-06
2.721745e-06
2.225152e-06
1.218705e-06
3.083867e-07
2.319079e-08
1.255339e-08
1.155312e-08
8.949454e-09
4.561373e-09
2.151797e-09
8.920624e-10
1.780527e-10
2.207585e-11
1.889943e-11
8.132993e-12
4.288739e-12
3.092854e-12
1.969378e-12
8.128157e-13
1.762912e-13
8.827036e-15
3.718295e-15
2.279158e-15
1.522226e-15
8.973862e-16
4.264478e-16
1.589235e-16
5.651404e-17
1.957181e-17
6.459630e-18
1.947397e-18
4.791859e-19
5.512849e-20
-7.169320e-20
-6.566996e-20
-4.294643e-20
-2.125598e-20
-8.838523e-21
-3.754880e-21
-1.300056e-21
-1.199459e-22
1.383598e-23
1.185594e-23
6.499437e-24
1.545580e-24
2.175345e-26
-1.068286e-26
-1.014490e-26
-5.971717e-27
-3.356786e-27
1.000000e+00
1.000000e+00
1.000000e+00
1.000000e+00
1.000000e+00
1.000000e+00
1.000000e+00
9.999987e-01
9.999943e-01
9.999959e-01
9.999925e-01
9.992666e-01
9.929856e-01
9.724081e-01
9.302080e-01
8.319147e-01
7.228897e-01
5.195453e-01
4.071631e-01
2.223356e-01
1.368643e-01
6.862210e-02
3.016958e-02
1.136895e-02
3.501175e-03
9.566665e-04
4.664056e-04
2.233928e-04
1.136875e-04
4.075867e-05
7.936240e-06
2.336641e-06
1.804024e-06
1.330432e-06
6.055708e-07
1.303342e-07
6.163801e-09
8.064606e-09
3.819258e-09
2.146018e-09
1.675300e-09
1.090197e-09
5.626432e-10
2.618986e-10
1.023582e-10
2.033316e-11
2.007403e-12
1.292915e-12
1.303429e-12
9.303397e-13
4.763363e-13
1.693725e-13
2.311877e-14
3.500533e-16
5.831313e-16
-1.647019e-17
2.393991e-17
4.126083e-17
8.661842e-18
-3.625132e-19
-5.491610e-19
-1.133407e-19
5.905229e-20
3.079674e-20
-3.368403e-20
-4.101348e-20
-2.180342e-20
-8.815660e-21
-3.577575e-21
-2.751228e-21
-1.727977e-21
-6.571933e-22
-7.810485e-23
1.106761e-23
6.010648e-24
3.337485e-24
1.405089e-24
6.036727e-25
2.436022e-25
6.768242e-26
1.000000e+00
1.000000e+00
1.000000e+00
1.000000e+00
1.000000e+00
1.000000e+00
1.000000e+00
1.000000e+00
9.999972e-01
9.999956e-01
9.999973e-01
9.999416e-01
9.989941e-01
9.902032e-01
9.711722e-01
9.210071e-01
8.231784e-01
7.195935e-01
5.218871e-01
4.078937e-01
2.281549e-01
1.366498e-01
6.952129e-02
3.126348e-02
1.174769e-02
3.383522e-03
5.574974e-04
2.100466e-04
1.199319e-04
9.817682e-05
5.607940e-05
1.699967e-05
1.990011e-06
1.350956e-06
1.017011e-06
6.686121e-07
3.354646e-07
1.563305e-07
5.853841e-08
9.894370e-09
1.149348e-09
8.700889e-10
5.621225e-10
2.636200e-10
2.052013e-10
1.290307e-10
6.475966e-11
2.157460e-11
1.927961e-12
7.552252e-13
4.428845e-13
3.582797e-13
2.237681e-13
1.013889e-13
4.405875e-14
2.063268e-14
8.724322e-15
3.721176e-15
1.620225e-15
7.349697e-16
2.294819e-16
9.522623e-18
-1.152629e-18
-8.691470e-19
-4.696932e-19
-2.458635e-19
-1.420583e-19
-6.627224e-20
-1.932633e-20
-3.062388e-21
-1.711653e-21
-1.374625e-21
-8.442349e-22
-4.166140e-22
-1.773725e-22
-7.773323e-23
-2.829701e-23
-3.575972e-24
4.727587e-25
2.099450e-25
1.000000e+00
1.000000e+00
1.000000e+00
1.000000e+00
1.000000e+00
1.000000e+00
1.000000e+00
1.000000e+00
9.999995e-01
9.999970e-01
9.999976e-01
9.999740e-01
9.999510e-01
9.974960e-01
9.896725e-01
9.671733e-01
9.134937e-01
8.160551e-01
7.166584e-01
5.215434e-01
4.108054e-01
2.332434e-01
1.463720e-01
7.664011e-02
3.645273e-02
1.522296e-02
5.249242e-03
1.327243e-03
2.947625e-04
9.844840e-05
8.158784e-05
6.231597e-05
3.053254e-05
8.352214e-06
1.196473e-06
4.984733e-07
3.145233e-07
1.414413e-07
1.176170e-07
7.662207e-08
3.749896e-08
1.805653e-08
6.765186e-09
1.207726e-09
2.249419e-10
1.293172e-10
6.599445e-11
5.301494e-11
3.273490e-11
1.243998e-11
2.103710e-12
2.770843e-13
2.258247e-13
8.985962e-14
4.215106e-14
9.230972e-15
6.746253e-15
2.890745e-15
8.297317e-16
7.347102e-16
5.848935e-16
3.455055e-16
1.541661e-16
6.654998e-17
2.922184e-17
1.055028e-17
8.448310e-19
-7.597960e-20
-7.175623e-20
-3.357235e-20
-5.828797e-21
-1.363615e-21
-8.521631e-22
-4.181918e-22
-1.438479e-22
-6.049168e-23
-5.303153e-23
-3.452162e-23
-1.742411e-23
-6.556759e-24
1.000000e+00
1.000000e+00
1.000000e+00
1.000000e+00
1.000000e+00
1.000000e+00
1.000000e+00
1.000000e+00
1.000000e+00
9.999985e-01
9.999986e-01
9.999870e-01
9.999873e-01
9.996194e-01
9.969412e-01
9.879521e-01
9.629697e-01
9.062236e-01
8.112469e-01
7.119737e-01
5.210818e-01
4.143939e-01
2.385892e-01
1.469363e-01
7.674740e-02
3.696140e-02
1.603632e-02
5.930356e-03
1.811461e-03
4.385787e-04
9.221740e-05
6.188044e-05
4.729685e-05
3.138263e-05
1.552954e-05
5.888402e-06
2.533308e-06
8.135260e-07
1.141016e-07
6.837212e-08
3.255806e-08
1.777545e-08
1.428527e-08
8.907731e-09
4.516951e-09
1.570261e-09
1.775452e-10
4.130309e-11
3.099706e-11
2.489181e-11
1.594748e-11
7.765032e-12
3.637491e-12
1.636117e-12
7.433160e-13
3.594204e-13
1.582764e-13
7.367161e-14
2.508769e-14
2.589691e-15
3.791420e-16
2.985043e-16
1.339891e-16
5.451656e-17
2.743518e-17
2.121064e-17
1.453052e-17
4.536620e-18
1.703431e-19
-6.855611e-20
-4.821519e-20
-2.431818e-20
-1.153353e-20
-5.384147e-21
-2.356649e-21
-6.520918e-22
-5.101091e-23
-3.040095e-23
-6.706053e-24
-5.129983e-24
1.000000e+00
1.000000e+00
1.000000e+00
1.000000e+00
1.000000e+00
1.000000e+00
1.000000e+00
1.000000e+00
1.000000e+00
9.999994e-01
9.999995e-01
9.999936e-01
9.999921e-01
9.999857e-01
9.993379e-01
9.961996e-01
9.859810e-01
9.586041e-01
8.992996e-01
8.088133e-01
7.067008e-01
5.196741e-01
4.154636e-01
2.429616e-01
1.591210e-01
8.339992e-02
4.027961e-02
1.765542e-02
6.892912e-03
2.333587e-03
6.630481e-04
1.590923e-04
5.886842e-05
3.691360e-05
2.328108e-05
1.065810e-05
4.158358e-06
2.633244e-06
1.407037e-06
7.002678e-07
3.011987e-07
6.790789e-08
1.437807e-08
7.689707e-09
4.555559e-09
3.675686e-09
2.267887e-09
8.647872e-10
1.552806e-10
1.970607e-11
8.945236e-12
3.897532e-12
2.884861e-12
1.601093e-12
4.211437e-13
2.393992e-13
1.579087e-13
7.570171e-14
5.956153e-14
3.587035e-14
1.635820e-14
7.325960e-15
3.421713e-15
1.310471e-15
1.622762e-16
1.364151e-17
1.420270e-17
1.159051e-17
6.765857e-18
2.957601e-18
1.238655e-18
5.405010e-19
1.603453e-19
2.089573e-22
-3.480566e-21
-2.544659e-21
-1.353098e-21
-6.237393e-22
-3.040889e-22
-1.201694e-22
1.000000e+00
1.000000e+00
1.000000e+00
1.000000e+00
1.000000e+00
1.000000e+00
1.000000e+00
1.000000e+00
1.000000e+00
9.999998e-01
9.999998e-01
9.999981e-01
9.999939e-01
9.999959e-01
9.999296e-01
9.991064e-01
9.953209e-01
9.837809e-01
9.546945e-01
8.884990e-01
8.115218e-01
7.049255e-01
5.184897e-01
4.165252e-01
2.444705e-01
1.649110e-01
8.850841e-02
4.341129e-02
1.931964e-02
7.738824e-03
2.736211e-03
8.273331e-04
2.260327e-04
7.598870e-05
4.219667e-05
2.753404e-05
1.268801e-05
2.812290e-06
1.422169e-06
6.961080e-07
5.583162e-07
3.672626e-07
1.982635e-07
7.066147e-08
1.084041e-08
2.662114e-09
2.171552e-09
1.745954e-09
1.096997e-09
5.352822e-10
2.438994e-10
1.146475e-10
5.215577e-11
2.397395e-11
1.123865e-11
5.473551e-12
1.865100e-12
2.481369e-13
3.031988e-14
2.885472e-14
7.522373e-15
5.707571e-15
3.274409e-15
2.525886e-15
1.799317e-15
5.893212e-16
5.631820e-17
9.830032e-18
6.607035e-18
2.940805e-19
8.313075e-19
5.479004e-19
4.258217e-19
2.433584e-19
1.056296e-19
4.357153e-20
1.774431e-20
7.229450e-21
2.951475e-21
1.236426e-21
1.000000e+00
1.000000e+00
1.000000e+00
1.000000e+00
1.000000e+00
1.000000e+00
1.000000e+00
1.000000e+00
1.000000e+00
9.999999e-01
9.999998e-01
9.999998e-01
9.999968e-01
9.999955e-01
9.999951e-01
9.998279e-01
9.989791e-01
9.937481e-01
9.845975e-01
9.402880e-01
8.937455e-01
7.989563e-01
7.032399e-01
5.214348e-01
4.170785e-01
2.478046e-01
1.704794e-01
9.365511e-02
4.705612e-02
2.142763e-02
8.823738e-03
3.229708e-03
1.020748e-03
2.755242e-04
7.554763e-05
3.861922e-05
2.988456e-05
2.009616e-05
9.780459e-06
2.970163e-06
5.848412e-07
3.397803e-07
1.995561e-07
1.621827e-07
1.029373e-07
4.236379e-08
8.873156e-09
1.597542e-09
9.121939e-10
3.724783e-10
2.334314e-10
7.584637e-11
5.071853e-11
2.408110e-11
1.084782e-11
5.305225e-12
4.407578e-12
2.690340e-12
1.234296e-12
5.637406e-13
2.642394e-13
1.017298e-13
1.673673e-14
2.211426e-15
1.797984e-15
1.430317e-15
8.560395e-16
3.840568e-16
1.695132e-16
7.893475e-17
2.625055e-17
2.322403e-18
1.012565e-20
2.038206e-19
4.786774e-20
-3.306098e-22
1.355859e-20
3.600592e-21
4.664101e-23
1.833042e-22
1.000000e+00
1.000000e+00
1.000000e+00
1.000000e+00
1.000000e+00
1.000000e+00
1.000000e+00
1.000000e+00
1.000000e+00
1.000000e+00
9.999999e-01
9.999999e-01
9.999991e-01
9.999966e-01
9.999973e-01
9.999272e-01
9.999136e-01
9.968891e-01
9.968230e-01
9.755043e-01
9.435812e-01
8.871386e-01
7.906740e-01
7.010268e-01
5.218966e-01
4.173749e-01
2.502975e-01
1.743800e-01
9.762244e-02
5.030732e-02
2.347976e-02
9.959511e-03
3.818094e-03
1.295909e-03
3.745055e-04
8.663331e-05
2.919680e-05
1.985323e-05
1.500428e-05
9.979480e-06
5.125299e-06
1.915417e-06
5.547193e-07
1.715506e-07
9.647189e-08
7.862389e-08
5.098281e-08
2.562069e-08
1.202874e-08
5.701713e-09
2.658838e-09
1.267614e-09
5.850890e-10
2.898748e-10
1.090690e-10
2.131039e-11
3.436947e-12
1.670735e-12
1.065921e-12
4.381804e-13
2.476837e-13
2.000796e-13
1.312512e-13
5.250331e-14
9.305188e-15
1.601809e-15
3.536750e-16
3.658691e-16
1.419745e-16
7.779682e-17
6.236462e-17
3.727586e-17
1.685333e-17
7.409581e-18
3.381177e-18
1.502581e-18
6.576717e-19
2.983063e-19
1.284258e-19
6.113329e-20
1.000000e+00
1.000000e+00
1.000000e+00
1.000000e+00
1.000000e+00
1.000000e+00
1.000000e+00
1.000000e+00
1.000000e+00
1.000000e+00
1.000000e+00
9.999999e-01
9.999999e-01
9.999983e-01
9.999985e-01
9.999671e-01
9.999790e-01
9.986382e-01
9.986991e-01
9.925275e-01
9.749752e-01
9.412561e-01
8.823381e-01
7.836634e-01
6.994377e-01
5.244361e-01
4.206083e-01
2.546022e-01
1.790321e-01
1.014468e-01
5.355539e-02
2.549155e-02
1.100951e-02
4.343818e-03
1.572208e-03
5.193748e-04
1.505114e-04
4.575126e-05
1.994557e-05
1.245082e-05
8.209816e-06
4.411799e-06
2.420376e-06
1.230551e-06
4.225981e-07
7.785129e-08
4.824099e-08
2.626378e-08
1.235289e-08
5.045862e-09
2.670957e-09
1.214764e-09
5.578306e-10
2.875032e-10
2.293575e-10
1.451974e-10
7.047969e-11
3.263706e-11
1.534321e-11
6.224840e-12
1.073328e-12
2.004948e-13
1.199395e-13
1.032698e-13
6.552104e-14
3.220518e-14
1.459673e-14
6.770035e-15
2.272807e-15
2.377402e-16
4.334798e-17
2.860315e-17
1.548302e-17
3.956502e-18
2.884939e-18
1.434455e-18
1.718105e-19
1.211083e-19
1.128103e-19
5.833412e-20
1.000000e+00
1.000000e+00
1.000000e+00
1.000000e+00
1.000000e+00
1.000000e+00
1.000000e+00
1.000000e+00
1.000000e+00
1.000000e+00
1.000000e+00
1.000000e+00
1.000000e+00
9.999992e-01
9.999997e-01
9.999847e-01
9.999939e-01
9.993868e-01
9.993684e-01
9.980129e-01
9.905737e-01
9.730878e-01
9.372788e-01
8.797072e-01
7.715239e-01
6.918220e-01
5.232838e-01
4.222050e-01
2.585938e-01
1.840345e-01
1.048653e-01
5.702998e-02
2.784827e-02
1.221635e-02
4.840272e-03
1.750869e-03
5.815352e-04
1.854654e-04
6.276151e-05
2.527257e-05
1.354818e-05
8.366910e-06
3.991494e-06
1.822227e-06
1.202064e-06
7.223530e-07
3.496935e-07
1.755521e-07
8.750035e-08
4.343105e-08
2.168875e-08
1.075786e-08
4.243701e-09
9.278914e-10
2.465178e-10
1.458602e-10
6.439563e-11
3.192608e-11
1.519486e-11
1.172991e-11
8.223978e-12
3.247657e-12
5.671836e-13
1.059752e-13
3.257943e-14
2.319934e-14
1.291703e-14
6.749867e-15
5.504681e-15
3.353267e-15
1.554515e-15
7.015871e-16
3.211213e-16
1.466589e-16
6.621980e-17
3.001342e-17
1.371723e-17
6.471914e-18
2.001769e-18
2.745089e-19
1.000000e+00
1.000000e+00
1.000000e+00
1.000000e+00
1.000000e+00
1.000000e+00
1.000000e+00
1.000000e+00
1.000000e+00
1.000000e+00
1.000000e+00
1.000000e+00
1.000000e+00
9.999996e-01
9.999997e-01
9.999931e-01
9.999973e-01
9.997735e-01
9.995568e-01
9.994737e-01
9.969864e-01
9.892540e-01
9.704474e-01
9.337955e-01
8.782926e-01
7.662130e-01
6.869385e-01
5.219983e-01
4.233115e-01
2.619890e-01
1.899718e-01
1.067980e-01
5.993853e-02
3.037280e-02
1.380721e-02
5.623620e-03
2.054736e-03
6.829838e-04
2.169644e-04
7.335466e-05
2.829268e-05
1.441485e-05
1.043101e-05
4.934064e-06
1.711426e-06
7.230687e-07
3.294747e-07
1.619552e-07
8.557597e-08
4.431431e-08
2.152540e-08
1.063046e-08
8.761497e-09
5.686072e-09
2.904036e-09
1.374895e-09
6.648036e-10
2.679851e-10
5.828458e-11
1.108660e-11
7.211146e-12
6.182435e-12
3.970393e-12
1.940069e-12
8.891081e-13
4.432938e-13
1.507931e-13
1.895676e-14
3.689766e-15
2.085742e-15
8.482725e-16
5.051152e-16
2.908748e-16
1.071740e-16
6.133548e-17
2.997990e-17
1.216697e-17
6.569987e-18
5.174713e-18
2.632133e-18
1.000000e+00
1.000000e+00
1.000000e+00
1.000000e+00
1.000000e+00
1.000000e+00
1.000000e+00
1.000000e+00
1.000000e+00
1.000000e+00
1.000000e+00