# vtk DataFile Version 3.0
MUSCL
ASCII
DATASET STRUCTURED_POINTS
DIMENSIONS 80 80 1
ORIGIN 0 0 0
SPACING 0.0125 0.0125 1
POINT_DATA 6400
SCALARS Temperature double 1
LOOKUP_TABLE default
0.000000e+00
-6.740007e-01
-1.939450e-01
-2.456376e-02
-3.504232e-04
1.502280e-05
6.013863e-07
-5.644196e-07
-2.600589e-07
-1.050455e-07
-4.023478e-08
-1.651782e-08
-7.275005e-09
-3.239439e-09
-1.414499e-09
-4.432617e-10
-5.270007e-12
-2.490321e-14
1.023056e-12
7.193634e-13
3.001230e-13
1.138601e-13
4.194642e-14
1.571782e-14
5.938647e-15
2.178436e-15
7.509152e-16
2.407477e-16
7.791508e-17
3.188418e-17
1.327745e-17
4.161947e-18
9.231787e-19
1.367880e-19
1.495623e-20
1.513221e-21
2.930727e-22
1.210306e-22
5.596937e-23
2.548350e-23
1.123424e-23
-3.142584e-26
-1.760489e-25
-5.130408e-26
-1.798595e-26
-9.141255e-27
-9.402434e-27
-9.099846e-27
-6.369543e-27
-4.091154e-27
-2.434289e-27
-1.474572e-27
-7.791487e-28
-1.546563e-28
-2.841251e-30
3.458034e-30
2.439822e-30
1.232605e-30
5.522992e-31
2.217013e-31
8.438580e-32
3.218152e-32
1.200016e-32
3.583276e-33
-2.680243e-34
-7.432050e-35
-5.483647e-35
-2.954590e-35
-1.500644e-35
-7.135390e-36
-3.212874e-36
-1.379290e-36
-5.647755e-37
-2.400454e-37
-4.399404e-38
2.317339e-40
4.233503e-40
1.658155e-40
6.393579e-41
5.675205e-41
1.325999e+00
6.740007e-01
1.939450e-01
2.456376e-02
3.504232e-04
-1.502280e-05
-6.013863e-07
5.644196e-07
2.600589e-07
1.050455e-07
4.023478e-08
1.651782e-08
7.275005e-09
3.239439e-09
1.414499e-09
4.432617e-10
5.270007e-12
2.490321e-14
-1.023056e-12
-7.193634e-13
-3.001230e-13
-1.138601e-13
-4.194642e-14
-1.571782e-14
-5.938647e-15
-2.178436e-15
-7.509152e-16
-2.407477e-16
-7.791508e-17
-3.188418e-17
-1.327745e-17
-4.161947e-18
-9.231787e-19
-1.367880e-19
-1.495623e-20
-1.513221e-21
-2.930727e-22
-1.210306e-22
-5.596937e-23
-2.548350e-23
-1.123424e-23
3.142584e-26
1.760489e-25
5.130408e-26
1.798595e-26
9.141255e-27
9.402434e-27
9.099846e-27
6.369543e-27
4.091154e-27
2.434289e-27
1.474572e-27
7.791487e-28
1.546563e-28
2.841251e-30
-3.458034e-30
-2.439822e-30
-1.232605e-30
-5.522992e-31
-2.217013e-31
-8.438580e-32
-3.218152e-32
-1.200016e-32
-3.583276e-33
2.680243e-34
7.432050e-35
5.483647e-35
2.954590e-35
1.500644e-35
7.135390e-36
3.212874e-36
1.379290e-36
5.647755e-37
2.400454e-37
4.399404e-38
-2.317339e-40
-4.233503e-40
-1.658155e-40
-6.393579e-41
-5.675205e-41
1.041913e+00
9.580872e-01
5.984962e-01
2.397530e-01
5.880372e-02
3.805109e-03
-1.960321e-04
-4.867165e-05
-2.509421e-05
-1.129806e-05
-4.836847e-06
-2.044742e-06
-8.440629e-07
-2.175674e-07
-1.336712e-09
5.885797e-10
6.613788e-10
3.421417e-10
9.962432e-11
3.439960e-11
9.194060e-12
1.915852e-12
5.385399e-13
2.410191e-13
1.199233e-13
5.378525e-14
2.163774e-14
7.525016e-15
2.283385e-15
6.006675e-16
1.306633e-16
2.476920e-17
3.937967e-18
6.035478e-19
1.582595e-19
6.877713e-20
3.252614e-20
1.587798e-20
7.873430e-21
3.415259e-21
1.751624e-22
-2.600630e-23
-1.354553e-23
-5.646522e-24
-2.763163e-24
-1.516960e-24
-9.221200e-25
-5.991853e-25
-3.971795e-25
-2.559039e-25
-1.840666e-25
-8.080623e-26
-2.072254e-27
2.420266e-28
5.034847e-28
3.455981e-28
1.828452e-28
9.223335e-29
4.384467e-29
2.004287e-29
8.924474e-30
3.788768e-30
1.413730e-30
1.326604e-31
-1.949767e-32
-8.703451e-33
-5.868813e-33
-3.136569e-33
-1.552334e-33
-7.232634e-34
-3.221270e-34
-1.106315e-34
-3.761305e-35
2.526256e-37
9.850035e-38
1.250497e-37
6.428854e-38
2.494821e-38
1.025609e-38
6.619455e-39
9.995465e-01
1.000453e+00
8.866024e-01
5.935358e-01
2.707095e-01
8.388982e-02
1.627387e-02
1.296225e-03
4.866882e-04
2.043236e-04
7.334096e-05
8.837142e-06
-7.030121e-07
-7.615560e-07
-4.452745e-07
-1.534828e-07
-1.923778e-08
9.246756e-10
2.992790e-10
8.946922e-11
4.920704e-12
1.396039e-13
1.466018e-13
-5.647391e-14
-3.165966e-14
2.457836e-14
2.211460e-14
7.558892e-15
2.370223e-15
6.364414e-16
1.185151e-16
-1.233282e-18
-2.374935e-17
-1.834381e-17
-9.593219e-18
-4.953726e-18
-2.603360e-18
-7.790519e-19
1.091977e-20
4.629034e-21
4.019352e-21
2.243344e-21
1.092445e-21
4.714094e-22
1.837602e-22
6.493099e-23
2.054798e-23
5.323965e-24
9.118966e-25
-1.056512e-25
-8.132914e-26
-6.518284e-26
-9.439256e-26
-7.605677e-26
-4.179691e-26
-2.335485e-26
-1.232977e-26
-6.217948e-27
-3.005549e-27
-1.389424e-27
-5.625977e-28
-1.628816e-28
-4.590545e-30
1.064407e-30
1.147303e-30
8.208774e-31
4.565389e-31
2.335709e-31
1.130936e-31
4.583023e-32
1.000656e-32
-3.978143e-35
-1.100406e-34
-6.832394e-35
-3.361161e-35
-1.473171e-35
-5.906791e-36
-2.319741e-36
-9.107043e-37
-4.166164e-37
9.999191e-01
1.000081e+00
9.863982e-01
8.524257e-01
5.808465e-01
2.960857e-01
9.886612e-02
2.186349e-02
6.070509e-04
1.682768e-04
1.360320e-04
9.081549e-05
4.196575e-05
7.410316e-06
-4.402945e-07
-3.272542e-07
-2.023138e-07
-6.044518e-08
-1.535959e-10
1.669529e-10
2.543998e-10
1.489891e-10
6.312393e-11
2.687584e-11
1.006042e-11
1.440923e-12
-4.719326e-14
3.186885e-14
1.807505e-14
5.487400e-15
1.337159e-15
2.896488e-16
7.089133e-17
4.683640e-17
3.962461e-17
1.948123e-17
-1.331214e-18
-2.095833e-18
-1.508352e-18
-6.990390e-19
-3.222047e-19
-1.425197e-19
-6.060904e-20
-2.477457e-20
-9.731282e-21
-3.676250e-21
-1.339173e-21
-4.729975e-22
-1.641869e-22
-5.793403e-23
-1.848269e-23
-3.990238e-24
-1.646622e-25
-7.258928e-26
-1.031344e-26
-2.185768e-26
-2.504151e-27
-7.403683e-28
-1.761322e-27
-1.414955e-27
-9.201721e-28
-5.386882e-28
-2.654548e-28
-1.179246e-28
-6.256668e-29
-3.507960e-29
-1.962406e-29
-7.235729e-30
-1.163291e-30
1.080890e-32
5.641056e-32
3.445254e-32
1.479962e-32
6.025062e-33
2.366596e-33
9.234469e-34
3.644957e-34
1.457039e-34
5.827372e-35
1.807962e-35
9.999743e-01
1.000026e+00
9.997773e-01
9.651267e-01
8.295613e-01
5.645947e-01
3.366132e-01
1.267164e-01
3.476811e-02
2.600647e-03
-8.234082e-05
6.661885e-05
6.205382e-05
4.518237e-05
1.972522e-05
2.532010e-06
-3.017183e-07
-1.939303e-07
-1.144243e-07
-4.933431e-08
-2.096039e-08
-8.824252e-09
-2.499442e-09
2.810664e-11
1.349516e-11
1.081783e-11
4.381146e-12
9.898486e-14
-5.634670e-15
-1.275525e-14
-6.286664e-15
-2.827016e-15
-1.304546e-15
-5.061232e-16
-1.368777e-16
1.835592e-17
2.086352e-17
1.832834e-17
9.760047e-18
4.946715e-18
2.417861e-18
1.147273e-18
5.292309e-19
2.372738e-19
1.030778e-19
4.333449e-20
1.770240e-20
6.869386e-21
2.299201e-21
6.461903e-22
1.054852e-22
9.786467e-24
-5.071146e-24
-3.584331e-24
-1.786343e-24
-9.072178e-25
-4.474972e-25
-1.500689e-25
-3.211600e-26
1.838109e-28
5.554611e-29
-1.341665e-29
-5.386187e-29
-8.897562e-29
-2.716629e-29
-1.112250e-29
-1.878738e-29
-1.780383e-29
-1.221905e-29
-6.605157e-30
-3.105285e-30
-1.428094e-30
-6.415179e-31
-2.830258e-31
-1.228937e-31
-5.245859e-32
-2.218551e-32
-6.611375e-33
-5.379800e-34
5.504977e-35
9.999964e-01
1.000004e+00
1.000034e+00
9.984147e-01
9.484735e-01
8.111382e-01
5.427035e-01
3.576819e-01
1.479599e-01
5.012863e-02
9.758644e-03
2.062739e-04
6.164653e-05
4.139689e-05
3.475465e-05
2.256626e-05
1.108626e-05
4.665810e-06
2.002966e-06
7.429602e-07
9.149941e-08
-9.185865e-09
-7.740024e-09
-4.169606e-09
-1.155961e-09
-2.044819e-12
7.518101e-12
6.980553e-12
2.991946e-12
1.148865e-12
4.588178e-13
2.043565e-13
7.451800e-14
2.775459e-14
-2.048970e-16
-3.153808e-16
-1.673158e-16
-7.413369e-17
-2.274873e-17
-2.765258e-18
1.710919e-18
-2.686902e-18
-6.530531e-19
-2.382405e-19
-1.439089e-19
-1.712532e-20
-1.007035e-21
2.754994e-21
2.251884e-21
5.892066e-22
8.912808e-23
-1.980161e-23
3.533812e-23
2.514149e-23
5.988175e-24
5.865645e-25
-4.265839e-25
-4.218608e-25
-2.829467e-25
-1.535905e-25
-6.999201e-26
-3.037874e-26
-1.247051e-26
-4.720590e-27
-1.880730e-27
-7.370126e-28
-6.677405e-29
-4.556681e-30
-6.688335e-30
-6.562123e-30
2.269728e-32
-7.059219e-31
-2.810675e-31
5.729615e-32
-5.161917e-32
-4.349266e-32
-2.789279e-32
-1.763971e-32
-1.013745e-32
-4.614410e-33
9.999997e-01
1.000000e+00
1.000010e+00
9.999965e-01
9.918138e-01
9.348511e-01
7.949157e-01
5.167811e-01
3.729468e-01
1.555917e-01
5.838347e-02
1.609381e-02
2.086098e-03
1.204384e-04
3.565819e-05
2.164996e-05
1.089618e-05
4.388449e-06
1.910184e-06
1.347378e-06
9.352971e-07
3.389451e-07
4.058651e-08
-4.333409e-09
-4.044495e-09
-2.294328e-09
-9.457578e-10
-3.956875e-10
-1.707258e-10
-7.668853e-11
-3.126173e-11
-5.654195e-12
1.392045e-13
9.521906e-14
5.677499e-14
2.631843e-14
1.227038e-14
5.780259e-15
2.735575e-15
1.283141e-15
5.978434e-16
2.354167e-16
5.813809e-17
7.729586e-19
-2.368398e-19
-1.976968e-19
-3.848881e-20
1.457480e-20
1.526476e-20
5.906313e-21
2.455324e-21
1.549283e-21
5.305607e-22
-9.648285e-23
-5.952473e-23
-4.266641e-25
8.008623e-25
5.740252e-26
-1.183999e-25
-1.110278e-25
2.598072e-26
-1.611214e-26
-1.504595e-26
-8.208853e-27
-4.050347e-27
-2.124764e-27
-1.203835e-27
-6.442468e-28
-3.732252e-28
-2.123808e-28
-1.126518e-28
-5.636580e-29
-2.718652e-29
-1.289138e-29
-4.812830e-30
-7.665449e-31
5.003787e-33
-1.231719e-32
-5.671785e-33
-2.702158e-33
9.999994e-01
1.000001e+00
1.000000e+00
1.000029e+00
9.998873e-01
9.849582e-01
9.218215e-01
7.794774e-01
5.212400e-01
3.784288e-01
1.650004e-01
6.665601e-02
2.043866e-02
4.193862e-03
3.766892e-04
7.890060e-05
4.708056e-05
2.597724e-05
9.397978e-06
1.840553e-06
9.237584e-07
7.278281e-07
4.506641e-07
2.147734e-07
9.376856e-08
3.982731e-08
1.657211e-08
7.110727e-09
2.068363e-09
-2.618198e-11
-4.199413e-11
-3.629128e-11
-1.849626e-11
-8.301724e-12
-3.680130e-12
-1.625950e-12
-7.139305e-13
-3.102957e-13
-1.367136e-13
-5.210431e-14
-6.102123e-15
-2.949060e-18
2.573424e-16
1.315623e-16
2.409521e-17
-4.909906e-19
-2.073026e-19
-3.978876e-20
1.791718e-20
2.089474e-20
1.242221e-20
5.146214e-21
1.045809e-21
-2.758957e-23
-2.639302e-22
-2.064655e-22
-1.082841e-22
-5.595722e-23
-2.550660e-23
-8.752967e-24
-1.846676e-24
4.950748e-26
7.168394e-26
1.413986e-26
1.048185e-27
-6.979198e-28
-7.634267e-28
-1.788619e-28
1.143624e-28
-2.138405e-29
-7.343004e-29
-4.323831e-29
-2.137597e-29
-1.137059e-29
-9.677466e-30
-6.165518e-30
-2.937073e-30
-1.281030e-30
-5.655434e-31
-2.478408e-31
9.999997e-01
1.000000e+00
1.000000e+00
1.000016e+00
1.000012e+00
9.988814e-01
9.786974e-01
9.080198e-01
7.698504e-01
5.221759e-01
3.810819e-01
1.771177e-01
7.562664e-02
2.533890e-02
5.878638e-03
4.358529e-04
2.481515e-05
3.180247e-05
2.573586e-05
1.371399e-05
3.679994e-06
6.875161e-07
4.501415e-07
2.204484e-07
9.206690e-08
3.660651e-08
1.699366e-08
7.014469e-09
5.558653e-09
3.145494e-09
1.336572e-09
5.607459e-10
2.334248e-10
9.581781e-11
3.861280e-11
1.514507e-11
6.026438e-12
1.690861e-12
-7.424221e-14
-8.359630e-14
-6.533449e-14
-2.529363e-14
-2.204218e-15
3.023055e-16
1.494913e-16
6.249329e-17
9.294714e-18
1.215206e-19
-4.175648e-20
-2.111743e-20
-1.095258e-20
-7.256098e-21
-2.025781e-21
5.110111e-24
-5.281405e-23
2.057606e-22
1.536662e-22
-4.465869e-23
-3.606602e-23
-2.404330e-23
-1.404929e-23
-6.851132e-24
-2.841750e-24
-1.084646e-24
-3.609728e-25
-1.113739e-25
-5.126737e-26
-2.493678e-26
-1.155866e-26
-5.682118e-27
-2.897002e-27
-1.506081e-27
-5.765465e-28
-6.567712e-29
1.401353e-30
-5.459257e-30
-2.871089e-30
-2.934921e-31
-3.053006e-31
-2.355181e-31
9.999999e-01
1.000000e+00
1.000000e+00
1.000004e+00
1.000016e+00
1.000020e+00
9.972846e-01
9.710523e-01
8.969905e-01
7.616206e-01
5.236905e-01
3.740632e-01
1.874451e-01
8.577240e-02
3.194941e-02
8.876453e-03
1.237577e-03
2.178300e-05
2.525172e-05
2.228363e-05
1.611703e-05
6.844015e-06
1.906729e-06
7.398748e-07
4.369606e-07
2.462646e-07
1.088538e-07
2.835100e-08
5.465193e-09
3.000221e-09
1.220760e-09
3.471785e-10
1.631354e-10
4.253137e-11
2.784334e-11
1.334621e-11
5.802246e-12
4.252703e-12
2.445438e-12
6.707713e-13
-6.263363e-14
-5.112812e-14
-3.372943e-14
-1.155737e-14
-1.061690e-15
1.034138e-16
8.152144e-17
3.923344e-17
1.563152e-17
6.566216e-18
1.776904e-18
3.869137e-21
-3.451857e-21
-5.980165e-21
-2.519490e-21
-2.412411e-22
7.195038e-23
1.230443e-22
1.130176e-22
3.429493e-23
2.222045e-24
-5.541986e-24
-3.370487e-24
-1.889975e-24
-9.722979e-25
-4.795033e-25
-1.438809e-25
-2.425947e-26
-1.051387e-26
-5.487719e-27
-2.391354e-27
-1.500255e-27
-1.268556e-27
-8.429627e-28
-4.173133e-28
-1.929174e-28
-8.978051e-29
-3.516566e-29
-7.712353e-30
-3.341265e-31
1.000000e+00
1.000000e+00
1.000000e+00
1.000000e+00
1.000009e+00
1.000011e+00
9.999853e-01
9.941946e-01
9.639134e-01
8.861899e-01
7.589253e-01
5.119053e-01
3.893245e-01
1.920972e-01
9.237425e-02
3.717493e-02
1.167528e-02
2.291724e-03
6.212367e-05
1.762972e-05
1.698329e-05
1.375374e-05
7.358316e-06
1.924815e-06
4.362897e-07
2.468248e-07
2.010041e-07
1.295089e-07
6.592404e-08
3.099095e-08
1.489388e-08
7.274282e-09
3.428210e-09
1.584022e-09
7.505458e-10
2.463112e-10
3.484110e-11
4.678929e-12
3.018748e-12
1.991953e-12
1.143012e-12
2.705427e-13
-3.043525e-14
-2.651721e-14
-1.683043e-14
-7.815063e-15
-3.447106e-15
-9.275671e-16
1.134672e-18
7.770979e-18
5.955064e-18
3.242313e-18
1.394158e-18
6.152704e-19
1.502715e-19
7.113938e-21
2.183866e-21
9.077138e-22
3.613709e-22
1.606186e-22
7.627452e-23
3.518656e-23
1.288917e-23
3.711962e-24
5.737287e-25
-2.436388e-25
-3.673738e-25
-2.644476e-25
-1.388440e-25
-7.964241e-26
-3.406197e-26
-4.724386e-27
-1.026176e-27
-4.518424e-28
-4.210693e-28
-1.936737e-28
-8.248499e-29
-6.423407e-29
-4.219731e-29
-1.932427e-29
1.000000e+00
1.000000e+00
1.000000e+00
1.000000e+00
1.000002e+00
1.000008e+00
1.000011e+00
9.997528e-01
9.914875e-01
9.548887e-01
8.817990e-01
7.454475e-01
5.159322e-01
3.938070e-01
1.986418e-01
9.889442e-02
4.197965e-02
1.454365e-02
3.637285e-03
3.475961e-04
1.786165e-05
1.670095e-05
1.353268e-05
9.955582e-06
3.859109e-06
7.117794e-07
1.819762e-07
7.986821e-08
5.876250e-08
2.897567e-08
1.154551e-08
6.962525e-09
3.533282e-09
1.358201e-09
7.618679e-10
6.081440e-10
3.191842e-10
9.582945e-11
2.275097e-12
8.397547e-13
1.094290e-12
9.150852e-13
4.902334e-13
1.996939e-13
6.312059e-14
-1.276502e-15
-3.655536e-15
-3.082760e-15
-1.711211e-15
-7.362568e-16
-3.277905e-16
-9.014954e-17
-8.531744e-19
6.595022e-19
5.758518e-19
1.823086e-19
1.766582e-21
-2.608224e-22
-6.122249e-22
-3.230740e-22
-6.573107e-23
3.099861e-24
1.298365e-23
8.432517e-24
3.531494e-24
6.138768e-25
-2.634335e-25
-2.186140e-25
-1.056121e-25
-7.142047e-26
-7.084789e-26
-5.281848e-26
-2.680029e-26
-1.385195e-26
-7.126315e-27
-3.106497e-27
-6.489652e-28
-2.743090e-29
-3.333869e-29
-1.917776e-29
1.000000e+00
1.000000e+00
1.000000e+00
1.000000e+00
1.000000e+00
1.000003e+00
1.000007e+00
9.999095e-01
9.998814e-01
9.863712e-01
9.508890e-01
8.716014e-01
7.385037e-01
5.161755e-01
3.972230e-01
2.052012e-01
1.052042e-01
4.640157e-02
1.746645e-02
5.023850e-03
6.090377e-04
-1.485427e-05
7.824755e-06
9.888139e-06
8.642308e-06
5.500146e-06
2.668364e-06
1.292554e-06
6.039861e-07
2.839931e-07
1.368008e-07
6.766174e-08
3.447057e-08
1.313269e-08
2.914458e-09
6.347423e-10
5.077179e-10
3.500729e-10
1.771860e-10
4.469546e-11
2.354914e-12
5.633043e-13
2.050922e-13
1.580330e-13
1.300887e-13
8.151770e-14
3.666912e-14
1.518304e-14
4.307066e-15
-2.807127e-16
-3.278830e-16
-2.827703e-16
-1.671973e-16
-5.070579e-17
-6.903453e-19
7.057581e-19
4.316095e-19
1.901714e-19
7.283965e-20
1.096093e-20
-6.027045e-22
-1.587722e-22
-6.474704e-23
-2.949289e-23
-1.752093e-23
-1.144627e-23
-6.951580e-24
-3.978766e-24
-2.005675e-24
-4.513915e-25
-8.055373e-26
-2.688872e-26
-1.714547e-26
-7.336858e-27
-6.495503e-27
-4.709340e-27
-3.555780e-27
-1.830648e-27
-5.807800e-28
-7.620134e-29
1.000000e+00
1.000000e+00
1.000000e+00
1.000000e+00
1.000000e+00
1.000000e+00
1.000004e+00
9.999636e-01
9.999813e-01
9.977278e-01
9.839143e-01
9.447521e-01
8.635208e-01
7.326575e-01
5.157749e-01
4.002200e-01
2.115920e-01
1.117202e-01
5.057175e-02
2.041417e-02
7.051129e-03
1.746953e-03
2.237714e-04
1.324927e-05
8.706385e-06
-1.258321e-07
2.346644e-06
6.397978e-07
2.872415e-07
2.609450e-07
1.202746e-07
3.638419e-08
3.388188e-08
2.752983e-08
1.658041e-08
5.816098e-09
5.663725e-10
3.346688e-10
2.606868e-10
1.742780e-10
9.047958e-11
3.849866e-11
1.345163e-11
1.657848e-12
5.845355e-14
6.776215e-14
3.519393e-14
1.437538e-14
1.108587e-14
6.402453e-15
2.697193e-15
5.395393e-16
-1.632111e-16
-1.364021e-16
-7.953930e-17
-3.600528e-17
-1.030147e-17
1.761159e-19
1.017312e-19
7.951228e-20
4.241943e-20
1.815743e-20
7.169866e-21
2.796134e-21
1.123329e-21
4.692316e-22
1.889161e-22
2.702028e-23
-3.003066e-24
-2.247811e-24
-1.380930e-24
-7.230416e-25
-3.681076e-25
-1.879449e-25
-6.746836e-26
-5.130551e-27
-3.188094e-27
-1.931052e-27
-1.687144e-27
-8.924352e-28
1.000000e+00
1.000000e+00
1.000000e+00
1.000000e+00
1.000000e+00
1.000000e+00
1.000002e+00
9.999853e-01
9.999953e-01
9.999958e-01
9.963516e-01
9.802578e-01
9.386934e-01
8.559133e-01
7.276521e-01
5.149899e-01
4.022761e-01
2.167140e-01
1.189797e-01
5.370852e-02
2.140567e-02
7.358823e-03
2.243465e-03
7.148257e-04
3.189874e-04
1.427555e-04
6.399114e-05
2.878177e-05
1.295361e-05
5.815979e-06
2.745637e-06
9.257005e-07
1.222627e-07
2.400425e-08
2.202969e-08
1.722237e-08
9.123013e-09
2.474064e-09
3.047880e-10
1.148991e-10
8.899461e-11
3.695532e-11
2.828382e-11
1.758148e-11
8.014918e-12
3.697287e-12
1.218819e-12
8.548650e-14
-5.774264e-15
2.979011e-15
3.035470e-15
2.265575e-15
1.177870e-15
3.343387e-16
-1.251649e-17
-3.591265e-17
-3.127545e-17
-1.847500e-17
-8.279047e-18
-3.599969e-18
-1.512284e-18
-6.154687e-19
-2.467629e-19
-1.025049e-19
-2.743714e-20
3.924745e-22
2.853987e-22
1.982165e-22
9.523984e-23
4.238327e-23
1.896818e-23
7.555094e-24
1.561980e-24
-1.925813e-25
-1.580242e-25
-1.119598e-25
-4.026301e-26
-4.469524e-27
-1.159857e-27
-8.765355e-28
1.000000e+00
1.000000e+00
1.000000e+00
1.000000e+00
1.000000e+00
1.000000e+00
1.000001e+00
9.999938e-01
9.999940e-01
9.999981e-01
9.996824e-01
9.947774e-01
9.764169e-01
9.334826e-01
8.476194e-01
7.250005e-01
5.158270e-01
4.044377e-01
2.192002e-01
1.311516e-01
6.152388e-02
2.464877e-02
8.093083e-03
1.887677e-03
3.339812e-04
1.285192e-04
5.576480e-05
2.787949e-05
1.163486e-05
5.766035e-06
2.818122e-06
2.257056e-06
1.248806e-06
3.245838e-07
1.907474e-08
1.366904e-08
1.295536e-08
9.611196e-09
5.040554e-09
2.333872e-09
9.085879e-10
1.920971e-10
2.923815e-11
1.359394e-11
6.655423e-12
3.457412e-12
2.910958e-12
1.807709e-12
7.168565e-13
1.146855e-13
1.008730e-15
8.849759e-16
1.116972e-15
8.265234e-16
4.322595e-16
1.719053e-16
4.844983e-17
9.459300e-18
-3.959029e-19
-1.968231e-18
-1.459002e-18
-6.094284e-19
-2.580586e-19
-1.063088e-19
-7.659887e-20
-4.369813e-20
-1.937466e-20
-8.637469e-21
-3.886795e-21
-1.473719e-21
-2.347803e-22
1.290297e-23
7.603654e-24
4.342057e-24
1.482344e-24
-2.852491e-26
-7.189929e-26
-5.812838e-26
-2.754207e-26
-1.191173e-26
1.000000e+00
1.000000e+00
1.000000e+00
1.000000e+00
1.000000e+00
1.000000e+00
1.000000e+00
9.999985e-01
9.999948e-01
9.999963e-01
9.999950e-01
9.992608e-01
9.929840e-01
9.724137e-01
9.302181e-01
8.319091e-01
7.228598e-01
5.194833e-01
4.070908e-01
2.222755e-01
1.368294e-01
6.860153e-02
3.016546e-02
1.136540e-02
3.509636e-03
9.655031e-04
4.635408e-04
2.292469e-04
1.154444e-04
4.054138e-05
8.079991e-06
2.169890e-06
1.863049e-06
1.369962e-06
6.136647e-07
1.348724e-07
1.363818e-08
9.425405e-09
5.124646e-09
2.370632e-09
1.769948e-09
1.121288e-09
5.424518e-10
2.426283e-10
9.130812e-11
1.614161e-11
2.066593e-12
1.225852e-12
1.096918e-12
8.538927e-13
4.140093e-13
1.513219e-13
1.919134e-14
7.491959e-16
-3.577684e-17
3.582400e-17
3.887728e-17
-9.194243e-19
-1.189531e-17
-1.021433e-17
-6.821269e-18
-3.816666e-18
-1.638465e-18
-3.995591e-19
-6.479765e-20
-3.211819e-20
-1.533249e-20
-8.298283e-21
-3.148008e-21
-2.688353e-21
-1.785109e-21
-8.236746e-22
-1.689569e-22
5.539159e-24
2.804994e-24
1.871109e-24
7.762136e-25
3.261479e-25
1.169689e-25
2.132212e-26
1.000000e+00
1.000000e+00
1.000000e+00
1.000000e+00
1.000000e+00
1.000000e+00
1.000000e+00
1.000000e+00
9.999973e-01
9.999963e-01
9.999986e-01
9.999399e-01
9.989898e-01
9.902046e-01
9.711851e-01
9.210228e-01
8.231787e-01
7.195730e-01
5.218373e-01
4.078428e-01
2.281175e-01
1.366215e-01
6.950460e-02
3.125644e-02
1.175453e-02
3.391861e-03
5.617746e-04
2.279878e-04
1.228562e-04
9.934261e-05
5.555787e-05
1.597114e-05
1.844331e-06
1.127734e-06
1.049905e-06
6.942464e-07
3.479770e-07
1.622325e-07
6.375392e-08
1.133052e-08
1.105497e-09
1.054068e-09
4.644717e-10
2.470459e-10
1.842369e-10
1.189067e-10
5.938789e-11
2.044346e-11
2.155542e-12
8.463104e-13
3.991450e-13
3.150632e-13
1.999760e-13
9.078469e-14
3.949073e-14
1.705405e-14
7.387901e-15
3.228923e-15
1.405093e-15
6.320120e-16
1.921045e-16
2.369069e-18
-3.876571e-18
-2.161653e-18
-1.025678e-18
-4.750901e-19
-2.279217e-19
-1.080812e-19
-3.296409e-20
-2.523283e-21
-1.347484e-21
-1.240760e-21
-8.836609e-22
-4.586739e-22
-1.971504e-22
-8.516978e-23
-3.297514e-23
-5.510477e-24
2.909132e-25
1.037394e-25
1.000000e+00
1.000000e+00
1.000000e+00
1.000000e+00
1.000000e+00
1.000000e+00
1.000000e+00
1.000000e+00
9.999995e-01
9.999972e-01
9.999976e-01
9.999727e-01
1.000009e+00
9.975444e-01
9.896924e-01
9.671988e-01
9.135143e-01
8.160611e-01
7.166479e-01
5.215135e-01
4.107791e-01
2.332151e-01
1.463482e-01
7.662736e-02
3.644584e-02
1.522346e-02
5.246458e-03
1.330135e-03
3.010487e-04
1.001454e-04
8.229874e-05
6.207060e-05
2.962880e-05
8.135541e-06
1.230846e-06
6.667856e-07
2.928132e-07
1.517148e-07
1.225371e-07
7.978104e-08
3.825095e-08
1.794378e-08
6.767713e-09
1.212510e-09
1.391476e-10
1.192482e-10
6.859582e-11
4.980918e-11
3.080179e-11
1.164172e-11
1.969801e-12
1.658983e-13
1.633325e-13
7.618099e-14
1.543617e-14
1.055898e-14
4.730070e-15
2.571524e-15
1.394107e-15
6.396765e-16
5.045133e-16
2.947129e-16
1.307776e-16
5.487574e-17
2.337074e-17
8.209543e-18
5.022409e-19
-9.823916e-20
-1.059721e-19
-6.150201e-20
-1.667274e-20
-1.431750e-21
-7.967661e-22
-1.920207e-22
-1.842472e-22
-7.384879e-23
-5.322476e-23
-3.669336e-23
-1.851429e-23
-7.926399e-24
1.000000e+00
1.000000e+00
1.000000e+00
1.000000e+00
1.000000e+00
1.000000e+00
1.000000e+00
1.000000e+00
1.000000e+00
9.999986e-01
9.999986e-01
9.999874e-01
9.999889e-01
9.996305e-01
9.969575e-01
9.879754e-01
9.629955e-01
9.062438e-01
8.112557e-01
7.119728e-01
5.210722e-01
4.143796e-01
2.385713e-01
1.469206e-01
7.673374e-02
3.695833e-02
1.603436e-02
5.941517e-03
1.820222e-03
4.401473e-04
9.163772e-05
6.208611e-05
4.747217e-05
3.151986e-05
1.522599e-05
5.655005e-06
2.558252e-06
7.224238e-07
1.145550e-07
7.565981e-08
3.685481e-08
1.737700e-08
1.411647e-08
8.636549e-09
4.298280e-09
1.490116e-09
1.449036e-10
3.051835e-11
2.893420e-11
2.387899e-11
1.520111e-11
7.431810e-12
3.411978e-12
1.571405e-12
7.287812e-13
3.269826e-13
1.459291e-13
6.719281e-14
2.198808e-14
2.021670e-15
4.677652e-16
1.197641e-16
1.136698e-16
4.474089e-17
2.150527e-17
1.628215e-17
1.112096e-17
3.476066e-18
2.238791e-20
-7.551613e-20
-6.390413e-20
-3.405410e-20
-1.586346e-20
-7.640703e-21
-3.041540e-21
-8.106371e-22
-4.612229e-23
-2.009487e-23
-9.788472e-24
-7.376411e-24
1.000000e+00
1.000000e+00
1.000000e+00
1.000000e+00
1.000000e+00
1.000000e+00
1.000000e+00
1.000000e+00
1.000000e+00
9.999994e-01
9.999994e-01
9.999943e-01
9.999916e-01
9.999833e-01
9.993665e-01
9.962222e-01
9.860011e-01
9.586233e-01
8.993171e-01
8.088255e-01
7.067113e-01
5.196759e-01
4.154622e-01
2.429519e-01
1.591126e-01
8.339888e-02
4.028281e-02
1.766718e-02
6.904332e-03
2.336344e-03
6.606845e-04
1.626414e-04
5.872507e-05
3.707766e-05
2.360744e-05
1.100626e-05
4.269120e-06
2.823551e-06
1.543887e-06
7.482220e-07
3.025160e-07
6.969315e-08
1.315058e-08
7.494997e-09
4.392913e-09
3.479435e-09
2.149654e-09
8.260696e-10
1.456224e-10
1.792961e-11
1.234892e-11
6.586101e-12
2.084429e-12
1.414030e-12
7.141238e-13
2.206919e-13
1.447950e-13
6.712370e-14
5.401838e-14
3.292824e-14
1.502853e-14
6.860306e-15
3.153276e-15
1.239121e-15
1.632509e-16
1.088220e-17
1.066975e-17
8.832075e-18
5.120811e-18
2.193965e-18
8.989436e-19
3.821045e-19
1.062645e-19
-6.487391e-21
-5.206667e-21
-3.333456e-21
-1.736479e-21
-7.806279e-22
-3.602996e-22
-1.420466e-22
1.000000e+00
1.000000e+00
1.000000e+00
1.000000e+00
1.000000e+00
1.000000e+00
1.000000e+00
1.000000e+00
1.000000e+00
9.999998e-01
9.999998e-01
9.999982e-01
9.999942e-01
9.999959e-01
9.999348e-01
9.991158e-01
9.953334e-01
9.837938e-01
9.547053e-01
8.885121e-01
8.115343e-01
7.049332e-01
5.184894e-01
4.165154e-01
2.444592e-01
1.649036e-01
8.850859e-02
4.342081e-02
1.933290e-02
7.744687e-03
2.734876e-03
8.249101e-04
2.238386e-04
7.532008e-05
4.262983e-05
2.839106e-05
1.359426e-05
3.647132e-06
1.554164e-06
7.518938e-07
5.801841e-07
3.748147e-07
1.911033e-07
6.803779e-08
1.031226e-08
3.001473e-09
2.088988e-09
1.667861e-09
1.052878e-09
5.042399e-10
2.327121e-10
1.056316e-10
4.855280e-11
2.281992e-11
1.049248e-11
5.187443e-12
1.743689e-12
2.108225e-13
2.516871e-14
3.105738e-14
1.184816e-14
6.081347e-15
2.835736e-15
2.319207e-15
1.615717e-15
5.181930e-16
4.436820e-17
8.028787e-18
4.803552e-18
-5.854868e-20
3.203085e-19
3.501509e-19
3.017883e-19
1.751591e-19
7.357787e-20
3.047480e-20
1.237253e-20
4.975510e-21
1.967833e-21
7.279276e-22
1.000000e+00
1.000000e+00
1.000000e+00
1.000000e+00
1.000000e+00
1.000000e+00
1.000000e+00
1.000000e+00
1.000000e+00
9.999999e-01
9.999998e-01
9.999999e-01
9.999969e-01
9.999958e-01
9.999967e-01
9.998354e-01
9.989867e-01
9.937503e-01
9.846027e-01
9.402943e-01
8.937565e-01
7.989794e-01
7.032679e-01
5.214476e-01
4.170828e-01
2.478059e-01
1.704817e-01
9.366540e-02
4.707184e-02
2.143834e-02
8.826219e-03
3.226942e-03
1.017189e-03
2.731888e-04
7.485255e-05
3.902091e-05
2.982143e-05
1.972663e-05
9.074737e-06
3.010692e-06
6.174014e-07
3.837467e-07
1.949705e-07
1.569630e-07
9.961725e-08
4.041493e-08
8.857764e-09
1.334105e-09
7.052413e-10
4.592263e-10
1.961196e-10
1.016444e-10
3.567150e-11
1.716425e-11
9.174246e-12
5.182850e-12
4.194521e-12
2.528293e-12
1.170062e-12
5.290807e-13
2.504619e-13
9.654674e-14
1.609420e-14
2.120291e-15
1.324525e-15
1.254669e-15
7.649594e-16
3.393087e-16
1.491544e-16
6.986465e-17
2.253585e-17
1.476743e-18
2.555032e-19
1.433235e-19
4.972978e-20
2.991097e-20
7.162909e-21
3.248060e-22
5.828852e-22
5.344859e-22
1.000000e+00
1.000000e+00
1.000000e+00
1.000000e+00
1.000000e+00
1.000000e+00
1.000000e+00
1.000000e+00
1.000000e+00
1.000000e+00
9.999999e-01
9.999999e-01
9.999991e-01
9.999968e-01
9.999989e-01
9.999260e-01
9.999718e-01
9.969317e-01
9.968152e-01
9.755219e-01
9.436159e-01
8.871627e-01
7.906759e-01
7.010246e-01
5.218938e-01
4.173725e-01
2.502991e-01
1.743844e-01
9.763487e-02
5.031920e-02
2.348511e-02
9.958232e-03
3.813867e-03
1.291441e-03
3.716900e-04
8.439538e-05
3.088658e-05
1.989540e-05
1.436811e-05
9.709531e-06
5.129890e-06
2.001769e-06
5.429505e-07
1.525137e-07
9.542083e-08
7.668867e-08
4.961300e-08
2.486632e-08
1.179968e-08
5.478599e-09
2.571354e-09
1.215139e-09
5.775576e-10
2.845025e-10
9.943768e-11
1.403047e-11
3.660201e-12
2.332042e-12
6.727166e-13
3.011346e-13
2.233481e-13
1.929050e-13
1.266891e-13
4.922275e-14
9.349035e-15
6.371715e-16
6.212171e-16
3.451450e-16
1.385221e-16
6.969246e-17
5.589422e-17
3.346245e-17
1.492516e-17
6.667049e-18
2.991974e-18
1.319436e-18
5.878539e-19
2.599067e-19
1.153297e-19
5.089906e-20
1.000000e+00
1.000000e+00
1.000000e+00
1.000000e+00
1.000000e+00
1.000000e+00
1.000000e+00
1.000000e+00
1.000000e+00
1.000000e+00
1.000000e+00
9.999999e-01
9.999999e-01
9.999983e-01
9.999987e-01
9.999666e-01
9.999704e-01
9.986489e-01
9.986597e-01
9.925666e-01
9.749390e-01
9.412192e-01
8.823110e-01
7.836345e-01
6.994081e-01
5.244122e-01
4.205868e-01
2.545902e-01
1.790257e-01
1.014477e-01
5.355664e-02
2.548918e-02
1.100383e-02
4.336893e-03
1.566545e-03
5.146136e-04
1.491175e-04
4.521518e-05
1.873521e-05
1.160392e-05
7.844099e-06
4.277643e-06
2.339933e-06
1.158993e-06
4.153317e-07
8.128192e-08
4.415778e-08
2.419250e-08
1.036818e-08
5.152825e-09
2.134223e-09
9.088913e-10
5.222191e-10
2.827725e-10
2.277241e-10
1.397026e-10
6.587315e-11
3.106497e-11
1.546040e-11
6.219913e-12
9.657347e-13
1.960869e-13
1.177056e-13
9.833117e-14
6.263085e-14
3.020047e-14
1.352296e-14
6.446473e-15
2.101310e-15
2.158787e-16
3.838398e-17
3.268861e-17
1.492536e-17
4.097719e-18
3.206008e-19
1.047957e-18
4.846072e-19
2.303778e-19
5.004806e-20
4.818765e-20
1.000000e+00
1.000000e+00
1.000000e+00
1.000000e+00
1.000000e+00
1.000000e+00
1.000000e+00
1.000000e+00
1.000000e+00
1.000000e+00
1.000000e+00
1.000000e+00
1.000000e+00
9.999992e-01
9.999994e-01
9.999850e-01
9.999867e-01
9.993903e-01
9.993819e-01
9.979713e-01
9.905428e-01
9.730762e-01
9.372747e-01
8.796945e-01
7.714902e-01
6.917805e-01
5.232434e-01
4.221688e-01
2.585696e-01
1.840189e-01
1.048562e-01
5.702306e-02
2.783988e-02
1.220677e-02
4.831350e-03
1.744067e-03
5.777301e-04
1.831032e-04
6.069218e-05
2.377694e-05
1.257266e-05
7.769173e-06
3.647528e-06
1.692061e-06
1.105339e-06
6.983325e-07
3.436292e-07
1.712505e-07
8.770476e-08
4.286268e-08
2.110422e-08
1.103740e-08
4.428376e-09
9.784073e-10
2.078671e-10
1.068072e-10
4.428417e-11
3.066278e-11
1.504269e-11
1.152243e-11
8.128356e-12
3.087145e-12
5.022373e-13
5.465166e-14
5.528791e-14
1.854709e-14
9.496951e-15
6.270482e-15
5.062150e-15
3.080580e-15
1.408732e-15
6.412530e-16
3.045445e-16
1.363264e-16
6.268461e-17
2.801092e-17
1.254691e-17
5.966069e-18
1.951018e-18
2.603713e-19
1.000000e+00
1.000000e+00
1.000000e+00
1.000000e+00
1.000000e+00
1.000000e+00
1.000000e+00
1.000000e+00
1.000000e+00
1.000000e+00
1.000000e+00
1.000000e+00
1.000000e+00
9.999996e-01
9.999997e-01
9.999932e-01
1.000002e+00
9.997634e-01
9.995503e-01
9.994588e-01
9.969897e-01
9.892806e-01
9.704826e-01
9.338191e-01
8.782900e-01
7.661828e-01
6.869023e-01
5.219617e-01
4.232800e-01
2.619671e-01
1.899583e-01
1.067880e-01
5.992821e-02
3.036113e-02
1.379544e-02
5.615112e-03
2.050464e-03
6.808377e-04
2.155796e-04
7.244639e-05
2.772414e-05
1.384713e-05
1.003469e-05
4.545455e-06
1.510028e-06
6.482639e-07
3.232520e-07
1.680821e-07
8.830874e-08
4.208793e-08
2.152309e-08
1.100478e-08
8.879809e-09
5.680027e-09
2.829596e-09
1.351711e-09
6.720192e-10
2.717238e-10
5.615635e-11
9.718562e-12
7.798769e-12
6.341871e-12
3.989440e-12
1.919813e-12
8.661350e-13
4.168719e-13
1.450733e-13
1.854712e-14
2.908668e-15
1.854577e-15
1.385958e-15
6.334782e-16
3.004315e-16
7.815114e-17
4.048539e-17
1.739019e-17
6.652297e-18
5.948565e-18
5.029168e-18
2.569136e-18
1.000000e+00
1.000000e+00
1.000000e+00
1.000000e+00
1.000000e+00
1.000000e+00
1.000000e+00