# vtk DataFile Version 3.0
MUSCL
ASCII
DATASET STRUCTURED_POINTS
DIMENSIONS 80 80 1
ORIGIN 0 0 0
SPACING 0.0125 0.0125 1
POINT_DATA 6400
SCALARS Temperature double 1
LOOKUP_TABLE default
0.000000e+00
-6.740008e-01
-1.939450e-01
-2.456312e-02
-3.510439e-04
3.921816e-05
-1.088733e-06
-6.408080e-07
-1.959554e-07
-8.237150e-08
-4.202396e-08
-2.038869e-08
-9.160150e-09
-3.950533e-09
-1.549881e-09
-6.013148e-10
-2.943247e-11
2.980694e-12
1.195020e-12
2.569629e-13
7.418408e-14
5.655340e-14
2.289949e-14
7.493960e-15
2.193297e-15
6.152947e-16
1.830882e-16
6.494289e-17
2.740643e-17
8.011684e-18
7.060677e-19
-5.069856e-21
-2.670196e-20
1.721911e-19
1.543066e-19
7.996373e-20
4.500910e-20
3.078257e-20
1.966920e-20
2.597009e-21
-5.950185e-24
-8.232514e-23
-3.634944e-23
-1.499718e-23
-7.450613e-24
-3.782927e-24
-1.784757e-24
-7.718598e-25
-3.074504e-25
-2.058793e-26
2.826730e-27
1.045493e-27
3.057281e-28
9.100758e-29
3.360688e-29
1.358431e-29
5.251894e-30
1.878399e-30
6.327290e-31
2.059730e-31
6.640228e-32
2.185537e-32
7.971201e-33
2.827077e-33
3.397577e-34
-1.751172e-35
-8.361549e-36
-3.789755e-36
-6.745134e-37
1.313301e-38
1.027901e-38
5.716384e-39
1.769074e-39
2.025627e-40
3.482349e-42
-8.546708e-42
-1.245494e-42
3.316680e-44
4.551235e-44
6.359695e-44
1.325999e+00
6.740008e-01
1.939450e-01
2.456312e-02
3.510439e-04
-3.921816e-05
1.088733e-06
6.408080e-07
1.959554e-07
8.237150e-08
4.202396e-08
2.038869e-08
9.160150e-09
3.950533e-09
1.549881e-09
6.013148e-10
2.943247e-11
-2.980694e-12
-1.195020e-12
-2.569629e-13
-7.418408e-14
-5.655340e-14
-2.289949e-14
-7.493960e-15
-2.193297e-15
-6.152947e-16
-1.830882e-16
-6.494289e-17
-2.740643e-17
-8.011684e-18
-7.060677e-19
5.069856e-21
2.670196e-20
-1.721911e-19
-1.543066e-19
-7.996373e-20
-4.500910e-20
-3.078257e-20
-1.966920e-20
-2.597009e-21
5.950185e-24
8.232514e-23
3.634944e-23
1.499718e-23
7.450613e-24
3.782927e-24
1.784757e-24
7.718598e-25
3.074504e-25
2.058793e-26
-2.826730e-27
-1.045493e-27
-3.057281e-28
-9.100758e-29
-3.360688e-29
-1.358431e-29
-5.251894e-30
-1.878399e-30
-6.327290e-31
-2.059730e-31
-6.640228e-32
-2.185537e-32
-7.971201e-33
-2.827077e-33
-3.397577e-34
1.751172e-35
8.361549e-36
3.789755e-36
6.745134e-37
-1.313301e-38
-1.027901e-38
-5.716384e-39
-1.769074e-39
-2.025627e-40
-3.482349e-42
8.546708e-42
1.245494e-42
-3.316680e-44
-4.551235e-44
-6.359695e-44
1.041913e+00
9.580871e-01
5.984984e-01
2.397498e-01
5.878399e-02
3.892455e-03
-6.255330e-05
-6.194345e-05
-2.247842e-05
-8.830966e-06
-3.892993e-06
-1.791162e-06
-7.741652e-07
-1.975144e-07
-1.778619e-09
8.497917e-10
7.057910e-10
2.333928e-10
2.158545e-11
-1.526109e-12
-8.395140e-13
-4.925092e-14
1.600551e-14
-8.704959e-16
2.323844e-16
4.819094e-16
1.922538e-16
1.831248e-17
-1.895579e-17
-6.731372e-18
5.092230e-19
-3.920550e-18
-9.391283e-19
-3.202332e-20
-1.331884e-19
-4.505339e-20
-4.415352e-20
-2.623489e-20
-1.879353e-20
-1.746581e-20
-1.485710e-20
-8.317317e-21
-4.258596e-21
-2.044379e-21
-9.359038e-22
-4.194035e-22
-1.666100e-22
-4.083756e-23
-6.320401e-26
7.249860e-25
2.402150e-25
7.275898e-26
2.775153e-26
1.130238e-26
4.370540e-27
1.573067e-27
5.359069e-28
1.761866e-28
5.662392e-29
1.795821e-29
5.716563e-30
1.899065e-30
5.539619e-31
6.963425e-32
-3.433582e-33
-1.690010e-33
-8.687302e-34
-2.242739e-34
-3.360160e-36
1.781048e-36
1.224443e-36
4.147785e-37
7.787805e-39
-9.489630e-41
-1.589725e-39
-5.457164e-40
5.365994e-42
8.016617e-42
5.016083e-42
4.943344e-42
9.995459e-01
1.000454e+00
8.865914e-01
5.935740e-01
2.707282e-01
8.408981e-02
1.543861e-02
1.166550e-03
4.706164e-04
2.104720e-04
7.668365e-05
9.844183e-06
-8.959464e-07
-7.776739e-07
-4.458697e-07
-1.623297e-07
-1.182815e-08
8.972759e-10
4.844092e-10
2.053743e-10
1.470515e-11
-1.482875e-12
-1.180543e-12
-5.992423e-13
-2.530315e-13
-1.028330e-13
-3.957403e-14
-1.255327e-14
-3.535425e-15
-6.990217e-16
-1.504057e-16
-3.692815e-17
-1.164521e-17
-6.320286e-18
-3.740247e-18
-2.110520e-18
-1.231791e-18
-6.949792e-19
-2.346048e-19
-1.470718e-20
-1.165808e-20
-6.604413e-21
-3.345969e-21
-2.035115e-21
-2.729578e-22
-2.690858e-22
-1.906103e-22
-1.739510e-22
-9.684403e-23
-4.222386e-23
-1.715802e-23
-6.838785e-24
-2.685472e-24
-1.032518e-24
-3.854357e-25
-1.390325e-25
-4.851699e-26
-1.653567e-26
-5.505872e-27
-1.875648e-27
-6.086225e-28
-1.467514e-28
-1.327192e-29
2.513803e-31
2.481084e-31
1.173820e-31
2.703396e-32
1.043708e-33
-1.703802e-34
-1.266263e-34
-6.412520e-37
5.428277e-37
5.442967e-37
2.311478e-37
1.280664e-39
-1.953337e-39
-1.712569e-39
-9.565118e-40
-4.317255e-40
-4.142535e-40
9.999190e-01
1.000081e+00
9.864365e-01
8.523001e-01
5.806399e-01
2.961083e-01
9.849693e-02
2.179201e-02
6.501094e-04
1.642383e-04
1.415147e-04
9.400203e-05
4.189247e-05
7.901377e-06
-2.710830e-07
-3.364894e-07
-2.313520e-07
-6.246677e-08
1.073556e-10
1.376726e-09
3.441154e-10
1.563901e-10
6.845018e-11
3.099371e-11
1.291052e-11
1.809357e-12
-7.600044e-14
-3.743825e-14
-4.620049e-15
-3.349395e-16
-4.704537e-17
2.721292e-17
2.530259e-17
7.428721e-18
1.193440e-18
-3.883299e-19
-1.017314e-18
-9.207549e-19
-6.774239e-19
-4.534988e-19
-2.715637e-19
-1.513347e-19
-7.966268e-20
-4.062831e-20
-2.071282e-20
-7.681760e-21
-7.471487e-22
-8.377627e-23
-8.702446e-23
-3.745410e-23
-1.091124e-23
-5.844501e-24
-2.707052e-24
-2.552073e-25
-1.256619e-25
4.385178e-26
-6.370356e-27
-1.159257e-26
-5.520669e-27
-1.959080e-28
-4.430700e-28
-1.457658e-28
-2.376935e-29
-3.868563e-29
-1.282503e-29
-3.597497e-32
4.387906e-32
2.476720e-32
1.971370e-34
-7.623089e-34
-4.081596e-34
-1.290368e-34
-2.059759e-35
1.290298e-36
5.118211e-37
2.606722e-37
1.307403e-37
6.620905e-38
2.934910e-38
2.467764e-38
9.999677e-01
1.000032e+00
1.000034e+00
9.659936e-01
8.299454e-01
5.647252e-01
3.365411e-01
1.266890e-01
3.480654e-02
2.658991e-03
-1.029473e-04
7.109611e-05
6.441845e-05
4.497284e-05
1.959931e-05
3.315401e-06
-2.154451e-07
-2.122486e-07
-1.229007e-07
-5.490445e-08
-2.340371e-08
-1.013270e-08
-3.020983e-09
3.386522e-11
1.933386e-11
1.458242e-11
5.920452e-12
5.786879e-14
-5.087223e-14
-3.253484e-14
-1.318205e-14
-5.976929e-15
-2.811883e-15
-1.293620e-15
-5.523659e-16
-2.278632e-16
-4.912784e-17
-1.542701e-18
-1.108638e-19
-2.721067e-19
-5.737142e-20
-8.514641e-20
-1.593339e-20
-1.866357e-20
-1.748642e-20
-1.296753e-20
-1.010744e-20
-4.270334e-21
-1.750352e-21
-8.729771e-22
-3.335200e-22
-9.746993e-23
-4.465390e-23
-2.379767e-23
-1.210206e-23
-5.468777e-24
-2.287505e-24
-8.702324e-25
-2.871629e-25
-7.353862e-26
-1.438736e-26
-3.048335e-27
-7.803728e-28
-2.194747e-28
-7.336247e-29
-2.810284e-29
-3.472963e-30
1.595923e-32
9.497367e-32
4.717214e-32
8.574665e-33
-4.357836e-34
-1.509850e-34
-8.268326e-35
-3.797950e-35
-1.761578e-35
-8.305764e-36
-3.972032e-36
-1.800595e-36
-1.200942e-36
9.999915e-01
1.000008e+00
1.000011e+00
9.985398e-01
9.486857e-01
8.112576e-01
5.427124e-01
3.576591e-01
1.479522e-01
5.016118e-02
9.856858e-03
1.382061e-04
3.819471e-05
3.737123e-05
3.325736e-05
2.166779e-05
1.124931e-05
4.673173e-06
1.960340e-06
7.510586e-07
1.141251e-07
-8.233530e-09
-8.354360e-09
-5.021099e-09
-1.333011e-09
-1.147221e-11
1.248424e-11
1.064998e-11
4.883350e-12
2.083862e-12
8.950447e-13
4.048256e-13
1.626931e-13
3.866822e-14
-5.722948e-16
-3.014727e-16
-2.243073e-16
-1.241686e-16
-5.485588e-17
-2.266575e-17
-9.742731e-18
-4.496176e-18
-2.135031e-18
-9.980541e-19
-2.903373e-19
-2.594121e-20
-9.604022e-21
-7.498231e-21
-4.667224e-21
-1.842859e-21
-3.392154e-22
-8.666608e-23
-4.400028e-23
-1.076346e-23
-1.038580e-23
-5.678055e-24
-3.108983e-24
-9.327019e-25
-2.021855e-25
-6.653728e-26
-1.183753e-26
-2.203224e-28
6.482648e-28
2.859801e-28
5.108195e-29
-9.823403e-30
-1.414994e-29
-1.214483e-29
-3.977228e-30
4.839213e-32
4.172734e-32
2.971528e-32
1.368825e-32
6.116171e-33
2.699663e-33
1.203083e-33
5.462658e-34
2.656966e-34
1.060646e-34
2.577861e-35
9.999979e-01
1.000002e+00
1.000003e+00
1.000091e+00
9.920307e-01
9.349719e-01
7.950044e-01
5.168226e-01
3.729626e-01
1.556435e-01
5.846073e-02
1.615780e-02
2.130831e-03
3.943358e-05
2.969251e-05
2.121444e-05
1.148849e-05
4.681045e-06
1.935794e-06
1.200833e-06
8.276999e-07
3.300379e-07
3.800990e-08
-6.235243e-09
-4.610827e-09
-2.630453e-09
-1.138267e-09
-4.965958e-10
-2.184374e-10
-9.854214e-11
-3.782395e-11
-5.863515e-12
4.681697e-14
1.650550e-13
9.989615e-14
4.593257e-14
2.009233e-14
8.378053e-15
3.419320e-15
1.399027e-15
5.865685e-16
2.427556e-16
6.053998e-17
-4.011144e-20
-6.196205e-19
-3.663096e-19
-6.911637e-20
-9.070759e-21
-3.342398e-21
-3.803151e-21
-3.005636e-21
-1.418201e-21
-7.132676e-22
-3.773080e-22
-1.303189e-22
-1.446806e-23
-2.342444e-24
-5.441965e-24
-4.419184e-24
-1.737564e-24
-6.559023e-25
-2.511472e-25
-9.602730e-26
-3.309164e-26
-7.350311e-27
-8.447286e-28
-1.063108e-28
-2.332772e-29
-1.112649e-29
-6.415449e-30
-3.086656e-30
-1.459925e-30
-6.794813e-31
-3.129286e-31
-1.436536e-31
-6.705074e-32
-3.254648e-32
-8.310471e-33
-6.643183e-35
7.081911e-35
9.999996e-01
1.000000e+00
9.999999e-01
1.000022e+00
9.999605e-01
9.849261e-01
9.218628e-01
7.795231e-01
5.212735e-01
3.784793e-01
1.650589e-01
6.680666e-02
2.052841e-02
4.328160e-03
3.841458e-04
7.838889e-05
4.526425e-05
2.581123e-05
9.255080e-06
1.778047e-06
8.239126e-07
6.474021e-07
4.145257e-07
2.038987e-07
8.871054e-08
3.679472e-08
1.488432e-08
6.245542e-09
1.762409e-09
-6.397326e-11
-6.347587e-11
-4.391720e-11
-2.243536e-11
-9.860976e-12
-4.282720e-12
-1.829875e-12
-7.729206e-13
-3.243509e-13
-1.382522e-13
-5.473159e-14
-8.706550e-15
1.494350e-16
2.077290e-16
1.079401e-16
7.997855e-18
-9.190339e-19
-6.582616e-19
-2.945273e-19
-5.608879e-20
-3.470432e-23
-2.291431e-21
-1.432968e-21
-4.033095e-22
-3.606495e-22
-3.379791e-22
-2.377526e-22
-9.410728e-23
-2.111765e-23
-4.681908e-24
-1.122244e-24
-2.901994e-25
-1.605264e-25
-9.269809e-26
-4.348899e-26
-8.240113e-27
-7.723007e-28
1.557032e-28
1.019698e-28
1.469330e-29
3.351941e-30
4.997101e-30
4.055944e-30
1.271490e-30
2.569904e-31
5.353564e-32
4.796225e-34
-1.915290e-32
-2.166169e-32
-1.854036e-32
-8.182865e-33
9.999999e-01
1.000000e+00
9.999998e-01
1.000011e+00
1.000010e+00
9.988632e-01
9.786786e-01
9.079872e-01
7.698246e-01
5.221744e-01
3.811236e-01
1.772772e-01
7.572296e-02
2.539707e-02
5.901838e-03
4.447932e-04
4.359378e-05
2.968732e-05
2.511487e-05
1.396577e-05
3.772412e-06
6.948036e-07
3.970986e-07
2.030385e-07
8.533618e-08
3.411411e-08
1.262184e-08
6.217473e-09
4.809956e-09
2.711828e-09
1.131975e-09
4.635313e-10
1.879479e-10
7.599857e-11
3.053386e-11
1.210816e-11
4.917107e-12
1.301229e-12
-9.435618e-14
-8.272176e-14
-5.900726e-14
-2.356089e-14
-7.559101e-16
1.375267e-16
1.489236e-16
6.897825e-17
7.509860e-18
-8.615176e-22
-3.618451e-19
-1.869672e-19
-8.517356e-20
-3.578771e-20
-1.255509e-20
-1.222996e-21
-6.861911e-23
-2.189719e-22
-2.008872e-22
-1.256123e-22
-5.960958e-23
-2.671970e-23
-1.096530e-23
-3.542116e-24
-7.451078e-25
-3.577071e-26
-5.576908e-26
-4.161882e-26
-1.854807e-26
-7.625310e-27
-3.135193e-27
-1.292674e-27
-5.225449e-28
-2.074649e-28
-8.237791e-29
-3.297598e-29
-1.379194e-29
-4.613981e-30
-3.383437e-31
1.704826e-32
-6.639906e-33
3.299240e-33
1.000000e+00
1.000000e+00
9.999999e-01
1.000001e+00
1.000012e+00
9.999946e-01
9.972044e-01
9.710015e-01
8.969272e-01
7.615491e-01
5.237026e-01
3.741368e-01
1.874990e-01
8.579707e-02
3.197697e-02
8.900048e-03
1.218895e-03
4.507718e-05
2.533318e-05
2.210035e-05
1.615409e-05
6.869333e-06
2.017135e-06
8.852924e-07
4.666045e-07
2.487811e-07
1.065758e-07
2.695598e-08
5.404704e-09
2.202881e-09
7.979511e-10
3.879256e-10
1.529983e-10
7.485003e-11
1.354764e-11
1.021823e-11
4.674375e-12
3.704852e-12
2.053846e-12
5.041974e-13
-5.012089e-14
-4.768081e-14
-3.285942e-14
-9.426982e-15
1.051112e-16
9.910452e-17
8.422423e-17
4.166333e-17
1.693736e-17
6.001698e-18
8.634946e-19
-9.803804e-20
-3.486965e-20
-2.004285e-20
-8.078425e-21
-1.237696e-21
-1.474295e-22
-1.057766e-22
-5.341554e-23
-2.715658e-23
-1.930108e-23
-1.184160e-23
-6.211764e-24
-2.316661e-24
-4.050591e-25
-2.350526e-26
-8.354339e-27
-3.252857e-27
-1.283443e-27
-2.943838e-28
-3.027679e-28
-1.959497e-28
-7.181012e-29
-2.274116e-29
-1.192933e-29
-8.003956e-30
-5.139002e-30
-2.406334e-30
-1.154690e-30
-5.297197e-31
1.000000e+00
1.000000e+00
1.000000e+00
1.000000e+00
1.000007e+00
1.000009e+00
1.000028e+00
9.942532e-01
9.638490e-01
8.861241e-01
7.588963e-01
5.119287e-01
3.893425e-01
1.921126e-01
9.239900e-02
3.720976e-02
1.169686e-02
2.348613e-03
7.175992e-05
1.695694e-05
1.658244e-05
1.366896e-05
6.927022e-06
1.688979e-06
4.304399e-07
2.535357e-07
1.915940e-07
1.237768e-07
6.432950e-08
2.915724e-08
1.372692e-08
6.328194e-09
2.939346e-09
1.334019e-09
6.363076e-10
2.059694e-10
2.410023e-11
3.465921e-12
2.545735e-12
1.768114e-12
9.707666e-13
2.438682e-13
-2.879341e-14
-2.542732e-14
-1.530974e-14
-6.868673e-15
-2.967039e-15
-6.042786e-16
2.459079e-17
1.349906e-17
8.803319e-18
4.343174e-18
1.903340e-18
4.032419e-19
1.515303e-21
-6.966814e-21
-4.761465e-21
-2.027104e-21
-6.157666e-22
-7.392999e-23
-1.395925e-23
-1.112624e-23
-6.221870e-24
-4.274038e-24
-2.480175e-24
-1.094967e-24
-4.591559e-25
-2.000507e-25
-8.842439e-26
-3.971972e-26
-1.778545e-26
-7.808060e-27
-3.573752e-27
-9.945526e-28
-3.947747e-29
-2.826325e-30
2.980444e-30
1.866528e-30
6.050122e-31
1.002238e-31
1.000000e+00
1.000000e+00
1.000000e+00
1.000000e+00
1.000002e+00
1.000007e+00
1.000008e+00
9.997538e-01
9.914584e-01
9.548521e-01
8.817762e-01
7.454486e-01
5.159514e-01
3.938290e-01
1.986575e-01
9.892545e-02
4.201536e-02
1.457854e-02
3.659408e-03
3.555958e-04
2.146806e-05
1.679823e-05
1.333942e-05
9.456930e-06
3.746238e-06
7.969253e-07
2.076833e-07
8.564503e-08
5.664964e-08
2.604869e-08
1.052373e-08
4.434558e-09
2.317603e-09
1.121790e-09
6.428120e-10
5.119758e-10
2.853284e-10
7.365249e-11
3.005357e-12
6.177764e-13
1.202157e-12
8.346775e-13
4.444223e-13
1.711868e-13
5.131300e-14
-2.131892e-15
-3.359337e-15
-3.001118e-15
-1.611048e-15
-7.525973e-16
-2.213341e-16
1.944562e-18
2.076809e-18
1.613929e-18
8.356610e-19
3.520568e-19
7.055338e-20
-1.752063e-21
-1.952859e-21
-1.153915e-21
-4.820385e-22
-1.653639e-22
-3.047809e-23
-4.906586e-24
8.633435e-25
1.754243e-24
9.663214e-25
3.718644e-25
1.389980e-25
4.420034e-26
1.317625e-26
-3.021168e-27
-3.721982e-27
-3.096668e-27
-1.780072e-27
-7.839354e-28
-3.413716e-28
-1.616406e-28
-7.364023e-29
-2.986810e-29
1.000000e+00
1.000000e+00
1.000000e+00
1.000000e+00
1.000000e+00
1.000003e+00
1.000006e+00
9.999073e-01
9.998694e-01
9.863775e-01
9.508912e-01
8.716053e-01
7.385231e-01
5.161994e-01
3.972240e-01
2.052079e-01
1.052349e-01
4.644543e-02
1.750676e-02
5.046297e-03
6.154211e-04
2.488097e-05
8.017587e-06
9.201031e-06
7.949788e-06
5.167730e-06
2.611260e-06
1.217364e-06
5.719394e-07
2.703227e-07
1.305913e-07
6.272175e-08
3.018260e-08
1.103218e-08
2.025179e-09
5.029565e-10
4.116117e-10
3.082758e-10
1.474465e-10
3.427432e-11
1.137746e-12
8.078158e-13
2.081695e-13
1.087280e-13
1.105767e-13
6.801958e-14
2.715221e-14
1.043215e-14
1.737366e-15
-7.626358e-16
-6.385816e-16
-3.702818e-16
-1.660286e-16
-4.712926e-17
-3.357951e-19
4.690743e-19
3.551995e-19
1.899542e-19
7.993677e-20
1.617172e-20
-6.268675e-22
-3.238778e-22
-1.941006e-22
-7.020809e-23
-1.398643e-23
-3.431123e-24
-2.858218e-24
-1.746685e-24
4.911802e-27
6.577730e-26
3.962182e-26
2.106746e-26
1.063933e-26
4.605205e-27
-2.878117e-28
-7.920097e-28
-4.774237e-28
-1.909880e-28
-1.055066e-28
-3.663675e-29
1.000000e+00
1.000000e+00
1.000000e+00
1.000000e+00
1.000000e+00
1.000000e+00
1.000004e+00
9.999633e-01
1.000030e+00
9.976884e-01
9.838665e-01
9.447312e-01
8.635361e-01
7.326947e-01
5.157841e-01
4.002134e-01
2.116090e-01
1.117686e-01
5.062607e-02
2.045220e-02
7.070459e-03
1.770478e-03
2.227163e-04
8.062752e-06
6.872493e-06
2.564830e-06
2.586344e-07
4.977514e-07
3.628620e-07
2.487948e-07
5.146715e-08
5.406681e-08
3.033307e-08
2.483129e-08
1.495542e-08
4.767293e-09
4.625759e-10
3.061298e-10
2.309781e-10
1.539264e-10
7.608066e-11
3.390270e-11
1.312754e-11
1.967379e-12
1.540269e-14
5.122628e-14
1.714965e-14
1.045903e-14
7.874137e-15
4.334334e-15
1.623196e-15
-5.326756e-17
-1.760971e-16
-1.430580e-16
-7.911486e-17
-3.492843e-17
-9.654080e-18
1.784044e-20
1.095349e-19
8.804185e-20
4.415523e-20
1.945254e-20
8.514124e-21
3.759503e-21
1.656319e-21
6.525378e-22
1.147427e-22
-5.852324e-24
-3.220815e-24
-1.795055e-24
-6.066724e-25
-1.582018e-25
-2.754182e-26
3.570567e-27
4.588438e-27
3.564410e-27
1.018642e-27
-1.985965e-28
-1.550915e-28
-1.087093e-28
1.000000e+00
1.000000e+00
1.000000e+00
1.000000e+00
1.000000e+00
1.000000e+00
1.000002e+00
9.999852e-01
9.999954e-01
9.999660e-01
9.962521e-01
9.802701e-01
9.387390e-01
8.559670e-01
7.276871e-01
5.149921e-01
4.022845e-01
2.167626e-01
1.190416e-01
5.375798e-02
2.143277e-02
7.368988e-03
2.239581e-03
7.052394e-04
3.122942e-04
1.431528e-04
6.659276e-05
2.888565e-05
1.267376e-05
5.614274e-06
2.671508e-06
8.553857e-07
1.161195e-07
2.566355e-08
1.877200e-08
1.462226e-08
7.947602e-09
2.103663e-09
2.295306e-10
9.283254e-11
7.394315e-11
3.258224e-11
2.555909e-11
1.594215e-11
7.332697e-12
3.264366e-12
1.054378e-12
6.158747e-14
-9.923978e-15
1.186066e-15
2.045153e-15
1.825115e-15
8.966224e-16
2.554238e-16
-4.194746e-17
-3.737101e-17
-2.919068e-17
-1.632917e-17
-6.894749e-18
-2.886673e-18
-1.212295e-18
-5.200279e-19
-1.927733e-19
-4.365634e-20
7.318173e-22
1.076210e-21
7.968155e-22
4.105336e-22
1.862908e-22
7.892786e-23
3.276948e-23
1.107704e-23
8.333947e-25
-5.298902e-26
-2.509015e-26
-5.825402e-27
1.667504e-28
2.811853e-27
2.268503e-27
1.021452e-27
1.000000e+00
1.000000e+00
1.000000e+00
1.000000e+00
1.000000e+00
1.000000e+00
1.000001e+00
9.999939e-01
9.999928e-01
9.999936e-01
9.996913e-01
9.948089e-01
9.764532e-01
9.335102e-01
8.476281e-01
7.249858e-01
5.158175e-01
4.044586e-01
2.192596e-01
1.312016e-01
6.155522e-02
2.466571e-02
8.092899e-03
1.885803e-03
2.996589e-04
1.472259e-04
6.793971e-05
2.877623e-05
1.164818e-05
5.251497e-06
2.694118e-06
2.165682e-06
1.182220e-06
2.984933e-07
1.829446e-08
1.372725e-08
1.102696e-08
8.187798e-09
4.256769e-09
2.065748e-09
8.047750e-10
1.665066e-10
2.246387e-11
1.326127e-11
5.188218e-12
3.166872e-12
2.578148e-12
1.549327e-12
6.036110e-13
8.691805e-14
-4.772088e-15
2.100969e-18
8.260474e-16
6.997717e-16
3.898176e-16
1.554202e-16
5.616810e-17
1.734978e-17
4.519285e-18
5.444830e-19
-4.438040e-19
-4.485304e-19
-3.612041e-19
-2.239384e-19
-1.200163e-19
-5.428089e-20
-2.400081e-20
-1.038382e-20
-4.620083e-21
-1.373175e-21
1.723535e-23
2.056649e-23
1.382595e-23
5.312798e-24
7.459138e-25
-2.130562e-26
-6.412546e-27
2.521427e-27
-1.192486e-27
4.203601e-28
1.000000e+00
1.000000e+00
1.000000e+00
1.000000e+00
1.000000e+00
1.000000e+00
1.000000e+00
9.999985e-01
9.999945e-01
9.999954e-01
9.999976e-01
9.992917e-01
9.929994e-01
9.724167e-01
9.302060e-01
8.318785e-01
7.228300e-01
5.194849e-01
4.071200e-01
2.223147e-01
1.368569e-01
6.862096e-02
3.017297e-02
1.136797e-02
3.479455e-03
9.532260e-04
4.832507e-04
2.326156e-04
1.146920e-04
4.000149e-05
7.858354e-06
2.051285e-06
1.777867e-06
1.302491e-06
5.756237e-07
1.229881e-07
1.314597e-08
7.409394e-09
2.840660e-09
1.733132e-09
1.532910e-09
9.840164e-10
4.690873e-10
2.201874e-10
8.034681e-11
1.166550e-11
2.294955e-12
1.169339e-12
8.786378e-13
7.162376e-13
3.485833e-13
1.252280e-13
1.312806e-14
-1.452426e-15
-1.029213e-16
8.990779e-17
5.660212e-17
-9.869240e-17
-1.434929e-17
-3.983406e-18
-1.802618e-18
-1.127003e-18
-3.319951e-19
-2.192648e-19
-1.148449e-19
-5.074423e-20
-2.377043e-20
-9.954002e-21
-4.621984e-21
-3.377901e-21
-2.057213e-21
-6.191898e-22
3.950240e-24
9.171700e-24
6.609457e-24
3.072629e-24
1.267958e-24
5.354455e-25
1.796501e-25
3.313719e-26
1.000000e+00
1.000000e+00
1.000000e+00
1.000000e+00
1.000000e+00
1.000000e+00
1.000000e+00
1.000000e+00
9.999973e-01
9.999959e-01
9.999979e-01
9.999441e-01
9.989985e-01
9.902053e-01
9.711677e-01
9.209869e-01
8.231398e-01
7.195473e-01
5.218417e-01
4.078530e-01
2.281319e-01
1.366369e-01
6.951779e-02
3.126938e-02
1.175413e-02
3.369533e-03
5.691081e-04
2.352163e-04
1.246517e-04
9.997291e-05
5.495014e-05
1.541618e-05
2.124156e-06
1.317602e-06
1.009539e-06
6.724927e-07
3.405396e-07
1.585748e-07
6.301041e-08
1.157693e-08
1.351527e-09
9.649700e-10
4.561690e-10
2.185362e-10
1.765907e-10
1.053269e-10
5.053746e-11
1.684271e-11
1.610179e-12
6.928526e-13
3.383412e-13
2.718420e-13
1.711872e-13
8.023193e-14
3.570463e-14
1.597911e-14
7.283418e-15
3.206306e-15
1.391632e-15
6.274575e-16
1.942642e-16
6.597306e-18
-2.331872e-18
-1.182935e-18
-6.393741e-19
-3.183351e-19
-1.551447e-19
-6.793810e-20
-2.021431e-20
-3.753179e-21
-2.103180e-21
-1.520874e-21
-8.924875e-22
-4.120039e-22
-1.872300e-22
-8.572778e-23
-2.673914e-23
-6.229643e-25
3.835366e-25
2.298365e-25
1.000000e+00
1.000000e+00
1.000000e+00
1.000000e+00
1.000000e+00
1.000000e+00
1.000000e+00
1.000000e+00
9.999995e-01
9.999972e-01
9.999978e-01
9.999743e-01
9.999903e-01
9.975781e-01
9.896941e-01
9.671812e-01
9.134861e-01
8.160323e-01
7.166289e-01
5.215058e-01
4.107766e-01
2.332218e-01
1.463639e-01
7.664924e-02
3.645466e-02
1.521631e-02
5.256963e-03
1.371020e-03
3.048128e-04
1.051233e-04
8.501101e-05
6.238280e-05
2.920388e-05
7.645426e-06
8.880270e-07
5.517096e-07
2.920162e-07
1.481675e-07
1.211309e-07
7.798413e-08
3.695524e-08
1.749169e-08
5.894217e-09
7.483543e-10
7.935382e-11
9.329741e-11
5.529018e-11
4.137430e-11
2.587728e-11
9.801149e-12
1.627357e-12
1.275318e-13
1.306188e-13
6.312556e-14
2.909270e-14
5.860449e-15
3.803277e-15
2.343277e-15
6.247296e-16
6.202371e-16
5.066467e-16
2.959900e-16
1.296774e-16
5.679966e-17
2.548471e-17
9.196078e-18
5.008895e-19
-7.104016e-20
-7.314302e-20
-3.729697e-20
-8.090943e-21
-1.389863e-21
-7.815403e-22
-3.304998e-22
-1.387505e-22
-8.029139e-23
-6.749953e-23
-3.909985e-23
-1.786279e-23
-6.802821e-24
1.000000e+00
1.000000e+00
1.000000e+00
1.000000e+00
1.000000e+00
1.000000e+00
1.000000e+00
1.000000e+00
1.000000e+00
9.999985e-01
9.999986e-01
9.999874e-01
9.999890e-01
9.996387e-01
9.969719e-01
9.879817e-01
9.629870e-01
9.062253e-01
8.112362e-01
7.119530e-01
5.210598e-01
4.143754e-01
2.385819e-01
1.469453e-01
7.675644e-02
3.696093e-02
1.604996e-02
5.956591e-03
1.820818e-03
4.338478e-04
8.907466e-05
6.205722e-05
4.733933e-05
3.105660e-05
1.467299e-05
5.654509e-06
2.521980e-06
7.475290e-07
1.095950e-07
7.965614e-08
3.198373e-08
1.681641e-08
1.392563e-08
8.529885e-09
4.125934e-09
1.333333e-09
1.310198e-10
3.335213e-11
2.599341e-11
2.046752e-11
1.273138e-11
6.187621e-12
2.952616e-12
1.381273e-12
6.464714e-13
3.046702e-13
1.390355e-13
6.532728e-14
2.236387e-14
2.275307e-15
9.952313e-17
1.924075e-16
8.260254e-17
3.327249e-17
2.555044e-17
1.947305e-17
1.339288e-17
3.881900e-18
-2.584478e-20
-4.526941e-20
-3.970163e-20
-1.937937e-20
-8.673033e-21
-4.088780e-21
-1.692328e-21
-3.402664e-22
-6.014540e-23
-3.409883e-23
-1.300943e-23
-6.417061e-24
1.000000e+00
1.000000e+00
1.000000e+00
1.000000e+00
1.000000e+00
1.000000e+00
1.000000e+00
1.000000e+00
1.000000e+00
9.999994e-01
9.999994e-01
9.999940e-01
9.999918e-01
9.999930e-01
9.993741e-01
9.962289e-01
9.860069e-01
9.586205e-01
8.993034e-01
8.088063e-01
7.066933e-01
5.196723e-01
4.154686e-01
2.429762e-01
1.591445e-01
8.341099e-02
4.029992e-02
1.767652e-02
6.904356e-03
2.329449e-03
6.567033e-04
1.573995e-04
5.761224e-05
3.653582e-05
2.299101e-05
1.070663e-05
4.170450e-06
2.652812e-06
1.456337e-06
7.162026e-07
2.925305e-07
6.872060e-08
1.461354e-08
7.394039e-09
4.209557e-09
3.289330e-09
1.997709e-09
7.540128e-10
1.318626e-10
1.532595e-11
1.212974e-11
6.193509e-12
1.389054e-12
1.083572e-12
5.882365e-13
3.100205e-13
1.220887e-13
6.521945e-14
5.277830e-14
3.205784e-14
1.469824e-14
6.683046e-15
3.069408e-15
1.154355e-15
1.273313e-16
1.662760e-17
1.325104e-17
1.084900e-17
6.429799e-18
2.912191e-18
1.299707e-18
5.930096e-19
1.812184e-19
-3.108928e-21
-2.987232e-21
-2.263886e-21
-1.098044e-21
-5.112875e-22
-2.500898e-22
-1.048270e-22
1.000000e+00
1.000000e+00
1.000000e+00
1.000000e+00
1.000000e+00
1.000000e+00
1.000000e+00
1.000000e+00
1.000000e+00
9.999997e-01
9.999998e-01
9.999982e-01
9.999938e-01
9.999940e-01
9.999386e-01
9.991226e-01
9.953402e-01
9.837985e-01
9.547061e-01
8.885034e-01
8.115216e-01
7.049236e-01
5.184905e-01
4.165341e-01
2.444966e-01
1.649289e-01
8.853095e-02
4.343368e-02
1.933826e-02
7.744838e-03
2.733644e-03
8.223065e-04
2.220634e-04
7.425982e-05
4.181841e-05
2.779301e-05
1.321082e-05
3.394631e-06
1.384838e-06
7.065872e-07
5.600926e-07
3.610578e-07
1.974666e-07
6.961578e-08
1.122869e-08
2.547732e-09
1.779228e-09
1.503730e-09
9.533794e-10
4.534600e-10
2.063423e-10
9.870845e-11
4.584959e-11
2.128471e-11
9.855274e-12
4.912885e-12
1.654180e-12
2.130933e-13
2.283817e-14
2.798719e-14
1.483588e-14
3.721116e-15
2.688916e-15
2.297390e-15
1.626074e-15
5.100234e-16
2.983707e-17
8.333367e-18
4.847496e-18
2.450243e-18
3.610460e-19
6.000801e-19
4.904034e-19
2.887779e-19
1.279180e-19
5.569605e-20
2.405176e-20
1.027307e-20
4.364889e-21
1.636046e-21
1.000000e+00
1.000000e+00
1.000000e+00
1.000000e+00
1.000000e+00
1.000000e+00
1.000000e+00
1.000000e+00
1.000000e+00
9.999999e-01
9.999998e-01
9.999998e-01
9.999968e-01
9.999954e-01
9.999950e-01
9.998370e-01
9.989964e-01
9.937696e-01
9.846136e-01
9.402821e-01
8.937293e-01
7.989522e-01
7.032494e-01
5.214533e-01
4.171077e-01
2.478307e-01
1.704974e-01
9.367707e-02
4.707978e-02
2.144330e-02
8.828182e-03
3.226201e-03
1.015471e-03
2.716956e-04
7.373858e-05
3.842415e-05
2.939435e-05
1.947392e-05
9.080027e-06
2.898898e-06
5.651204e-07
3.222272e-07
2.005028e-07
1.591300e-07
9.890767e-08
4.055640e-08
8.534279e-09
1.058546e-09
8.513320e-10
4.642842e-10
1.759235e-10
8.914629e-11
2.849439e-11
1.581376e-11
9.708873e-12
4.921874e-12
3.858427e-12
2.379908e-12
1.120907e-12
5.058474e-13
2.427765e-13
9.610082e-14
1.368095e-14
2.066817e-15
1.631075e-15
1.323664e-15
7.992058e-16
3.619244e-16
1.676121e-16
7.832740e-17
2.507237e-17
1.598296e-18
-1.224238e-19
2.160822e-19
1.293423e-19
7.039660e-21
-5.099652e-22
-3.827727e-22
2.586633e-21
1.074227e-21
1.000000e+00
1.000000e+00
1.000000e+00
1.000000e+00
1.000000e+00
1.000000e+00
1.000000e+00
1.000000e+00
1.000000e+00
1.000000e+00
9.999999e-01
9.999999e-01
9.999991e-01
9.999967e-01
9.999966e-01
9.999247e-01
9.999585e-01
9.969467e-01
9.968171e-01
9.755476e-01
9.436566e-01
8.872004e-01
7.906970e-01
7.010405e-01
5.219162e-01
4.173942e-01
2.503119e-01
1.743886e-01
9.763931e-02
5.032336e-02
2.348775e-02
9.958892e-03
3.813019e-03
1.290020e-03
3.702272e-04
8.340236e-05
2.952288e-05
1.954392e-05
1.442140e-05
9.692840e-06
5.026967e-06
1.879825e-06
5.371138e-07
1.503288e-07
9.352822e-08
7.488578e-08
4.808327e-08
2.400240e-08
1.109071e-08
5.212163e-09
2.424604e-09
1.154460e-09
5.554901e-10
2.677096e-10
1.027090e-10
1.876791e-11
2.325034e-12
1.817603e-12
7.710955e-13
2.684937e-13
2.144911e-13
1.782821e-13
1.263111e-13
4.194940e-14
4.724286e-15
1.357634e-15
7.557608e-16
1.429621e-16
1.157813e-16
7.808350e-17
6.472609e-17
3.886397e-17
1.793378e-17
8.055750e-18
3.731842e-18
1.675678e-18
7.654018e-19
3.475576e-19
1.560607e-19
6.401503e-20
1.000000e+00
1.000000e+00
1.000000e+00
1.000000e+00
1.000000e+00
1.000000e+00
1.000000e+00
1.000000e+00
1.000000e+00
1.000000e+00
1.000000e+00
9.999999e-01
9.999999e-01
9.999983e-01
9.999985e-01
9.999671e-01
9.999892e-01
9.986430e-01
9.987061e-01
9.924581e-01
9.749064e-01
9.412170e-01
8.823167e-01
7.836508e-01
6.994314e-01
5.244381e-01
4.206088e-01
2.546005e-01
1.790279e-01
1.014498e-01
5.355825e-02
2.548994e-02
1.100366e-02
4.335793e-03
1.564880e-03
5.130277e-04
1.495618e-04
4.520225e-05
1.874232e-05
1.168392e-05
7.821388e-06
4.247522e-06
2.354529e-06
1.161711e-06
4.194810e-07
7.505975e-08
4.013330e-08
2.375318e-08
1.092307e-08
5.211317e-09
1.945407e-09
1.178863e-09
5.583968e-10
2.703806e-10
2.149308e-10
1.343839e-10
6.755934e-11
3.115595e-11
1.475601e-11
6.013723e-12
9.542822e-13
1.410076e-13
1.271810e-13
1.007541e-13
6.050972e-14
2.845714e-14
1.294401e-14
6.455195e-15
2.164631e-15
2.210988e-16
4.399153e-17
3.159298e-17
1.568802e-17
8.280745e-18
2.781516e-18
1.460677e-18
7.624165e-19
3.544682e-19
1.221059e-19
6.065488e-20
1.000000e+00
1.000000e+00
1.000000e+00
1.000000e+00
1.000000e+00
1.000000e+00
1.000000e+00
1.000000e+00
1.000000e+00
1.000000e+00
1.000000e+00
1.000000e+00
1.000000e+00
9.999992e-01
9.999998e-01
9.999849e-01
9.999990e-01
9.993889e-01
9.993958e-01
9.979574e-01
9.904821e-01
9.730253e-01
9.372491e-01
8.796951e-01
7.715123e-01
6.918100e-01
5.232732e-01
4.221916e-01
2.585785e-01
1.840178e-01
1.048550e-01
5.702214e-02
2.783891e-02
1.220513e-02
4.829007e-03
1.741567e-03
5.757864e-04
1.818175e-04
6.010524e-05
2.363661e-05
1.260283e-05
7.839243e-06
3.734476e-06
1.735901e-06
1.132694e-06
6.873023e-07
3.360122e-07
1.642096e-07
8.252466e-08
4.054600e-08
2.004955e-08
1.022683e-08
4.185631e-09
9.014766e-10
1.984408e-10
1.350749e-10
4.991909e-11
2.906773e-11
1.421990e-11
1.112192e-11
7.836330e-12
2.921651e-12
5.173318e-13
5.286447e-14
5.693636e-14
2.272156e-14
1.162192e-14
6.455212e-15
5.148919e-15
3.125661e-15
1.451517e-15
6.754474e-16
3.122549e-16
1.467635e-16
6.659305e-17
3.053418e-17
1.394594e-17
6.769955e-18
2.218751e-18
3.308971e-19
1.000000e+00
1.000000e+00
1.000000e+00
1.000000e+00
1.000000e+00
1.000000e+00
1.000000e+00
1.000000e+00
1.000000e+00
1.000000e+00
1.000000e+00
1.000000e+00
1.000000e+00
9.999996e-01
9.999998e-01
9.999932e-01
9.999993e-01
9.997726e-01
9.995619e-01
9.994456e-01
9.969497e-01
9.892322e-01
9.704470e-01
9.338039e-01
8.782949e-01
7.662022e-01
6.869239e-01
5.219801e-01
4.232893e-01
2.619648e-01
1.899483e-01
1.067801e-01
5.992258e-02
3.035659e-02
1.379104e-02
5.610779e-03
2.046289e-03
6.774794e-04
2.133019e-04
7.114729e-05
2.702664e-05
1.367447e-05
9.880051e-06
4.526142e-06
1.452618e-06
6.332491e-07
3.302889e-07
1.620000e-07
8.483547e-08
3.471444e-08
1.899227e-08
1.023954e-08
8.173244e-09
5.358447e-09
2.685974e-09
1.306461e-09
6.539695e-10
2.838129e-10
6.931775e-11
1.073909e-11
7.177958e-12
6.067901e-12
3.837014e-12
1.898579e-12
8.600376e-13
4.134671e-13
1.407848e-13
1.741695e-14
2.335078e-15
1.512736e-15
9.067595e-16
5.999785e-16
2.829523e-16
8.425169e-17
5.882354e-17
2.909814e-17
1.108915e-17
6.331938e-18
5.280925e-18
2.804047e-18
1.000000e+00
1.000000e+00
1.000000e+00