# vtk DataFile Version 3.0
MUSCL
ASCII
DATASET STRUCTURED_POINTS
DIMENSIONS 80 80 1
ORIGIN 0 0 0
SPACING 0.0125 0.0125 1
POINT_DATA 6400
SCALARS Temperature double 1
LOOKUP_TABLE default
0.000000e+00
-6.739993e-01
-1.939481e-01
-2.456620e-02
-3.505170e-04
3.904310e-05
1.929061e-06
-6.318889e-07
-2.398342e-07
-8.779059e-08
-4.098228e-08
-1.943168e-08
-8.936273e-09
-4.063997e-09
-1.761397e-09
-5.730945e-10
-1.432772e-11
1.289727e-12
1.865719e-12
8.447517e-13
2.702379e-13
6.244621e-14
8.744331e-15
1.300712e-15
1.526540e-15
1.512882e-15
9.427166e-16
4.919370e-16
1.660265e-16
6.431109e-17
3.459568e-17
1.558400e-17
6.211103e-18
2.221331e-18
7.209939e-19
2.326286e-19
8.338667e-20
3.851367e-20
1.410063e-20
5.711249e-23
-8.338032e-23
-6.839798e-23
-2.434414e-23
-8.836637e-24
-3.828303e-24
-1.747431e-24
-7.575623e-25
-3.091164e-25
-1.220976e-25
-4.829000e-26
-1.941397e-26
-8.557352e-27
-2.736544e-27
-7.758783e-29
4.609281e-29
3.474616e-30
1.524199e-30
8.306026e-31
4.718173e-31
2.605420e-31
1.358996e-31
6.742443e-32
3.234781e-32
1.470151e-32
6.019333e-33
2.137247e-33
6.480329e-34
1.681408e-34
3.777504e-35
7.484049e-36
1.344607e-36
2.340111e-37
3.991926e-38
4.210462e-39
-1.481032e-40
-5.205763e-41
3.127266e-41
4.957881e-41
3.112749e-41
1.866114e-41
1.326001e+00
6.739993e-01
1.939481e-01
2.456620e-02
3.505170e-04
-3.904310e-05
-1.929061e-06
6.318889e-07
2.398342e-07
8.779059e-08
4.098228e-08
1.943168e-08
8.936273e-09
4.063997e-09
1.761397e-09
5.730945e-10
1.432772e-11
-1.289727e-12
-1.865719e-12
-8.447517e-13
-2.702379e-13
-6.244621e-14
-8.744331e-15
-1.300712e-15
-1.526540e-15
-1.512882e-15
-9.427166e-16
-4.919370e-16
-1.660265e-16
-6.431109e-17
-3.459568e-17
-1.558400e-17
-6.211103e-18
-2.221331e-18
-7.209939e-19
-2.326286e-19
-8.338667e-20
-3.851367e-20
-1.410063e-20
-5.711249e-23
8.338032e-23
6.839798e-23
2.434414e-23
8.836637e-24
3.828303e-24
1.747431e-24
7.575623e-25
3.091164e-25
1.220976e-25
4.829000e-26
1.941397e-26
8.557352e-27
2.736544e-27
7.758783e-29
-4.609281e-29
-3.474616e-30
-1.524199e-30
-8.306026e-31
-4.718173e-31
-2.605420e-31
-1.358996e-31
-6.742443e-32
-3.234781e-32
-1.470151e-32
-6.019333e-33
-2.137247e-33
-6.480329e-34
-1.681408e-34
-3.777504e-35
-7.484049e-36
-1.344607e-36
-2.340111e-37
-3.991926e-38
-4.210462e-39
1.481032e-40
5.205763e-41
-3.127266e-41
-4.957881e-41
-3.112749e-41
-1.866114e-41
1.041911e+00
9.580886e-01
5.985624e-01
2.397457e-01
5.877513e-02
3.877801e-03
-9.429701e-05
-5.084663e-05
-2.655097e-05
-1.144761e-05
-4.993669e-06
-2.162506e-06
-9.188420e-07
-2.424686e-07
-3.266349e-09
9.793244e-10
9.144420e-10
3.799065e-10
2.477233e-11
-3.179448e-12
-7.119661e-13
-7.773400e-14
-4.953183e-15
2.275007e-16
-8.411003e-16
1.354277e-16
-8.026571e-16
-5.573611e-16
-4.267333e-16
-1.794678e-16
-3.616481e-17
-1.028038e-17
-4.714217e-18
-1.173251e-18
-5.977089e-19
-1.943741e-19
-5.817942e-20
-3.870359e-20
-3.238789e-20
-2.375245e-20
-1.233788e-20
-6.500174e-21
-3.205282e-21
-1.501670e-21
-6.698776e-22
-2.859575e-22
-1.176381e-22
-4.663337e-23
-1.801392e-23
-6.863221e-24
-2.591401e-24
-6.698178e-25
-1.326956e-26
2.297414e-27
2.123835e-27
9.858137e-28
4.228020e-28
1.738125e-28
7.103858e-29
2.989074e-29
1.143923e-29
2.591732e-30
2.343944e-30
1.090153e-30
4.109964e-31
1.321257e-31
3.687384e-32
9.015702e-33
1.960078e-33
3.890509e-34
7.445906e-35
1.349416e-35
1.711456e-36
2.524285e-38
-1.257626e-38
-5.923417e-39
5.358139e-40
3.114510e-39
2.617360e-39
1.218935e-39
9.992276e-01
1.000772e+00
8.861259e-01
5.933182e-01
2.706778e-01
8.404743e-02
1.596107e-02
1.208768e-03
4.792020e-04
2.069444e-04
7.525042e-05
9.847581e-06
-9.924517e-07
-7.995531e-07
-4.649425e-07
-1.710850e-07
-1.226112e-08
1.085493e-09
5.399701e-10
2.048069e-10
-1.882632e-12
-1.086913e-12
-6.854459e-13
-3.575951e-13
-1.860648e-13
-9.442239e-14
-2.590048e-14
-8.932066e-17
-3.416738e-16
-3.666067e-16
-3.638292e-16
-2.226146e-16
-1.167295e-16
-5.282173e-17
-2.051395e-17
-8.146986e-18
-2.596178e-18
-4.128339e-19
-3.589456e-20
-1.508184e-20
-9.042259e-21
-6.482323e-21
-2.692741e-22
3.886123e-23
-5.999960e-22
-3.221449e-23
-4.718620e-24
-2.636847e-23
-5.096032e-24
-2.675600e-24
-1.825262e-24
-7.117630e-25
-8.550522e-25
-4.119046e-25
-1.634024e-25
-6.600239e-26
-2.711096e-26
-1.153413e-26
-4.268698e-27
-8.163105e-28
2.352552e-29
2.175974e-29
-1.128026e-29
-3.287213e-29
-1.564606e-29
-4.753685e-30
-1.246821e-30
-2.884816e-31
-6.691767e-32
-1.549031e-32
-2.580767e-33
-1.110001e-34
1.073645e-35
3.384720e-36
1.147856e-36
6.636038e-38
-3.364369e-38
-1.146591e-37
-1.153020e-37
-6.695667e-38
9.999095e-01
1.000090e+00
9.863560e-01
8.524352e-01
5.809116e-01
2.961875e-01
9.864051e-02
2.183158e-02
6.442607e-04
1.570317e-04
1.368491e-04
8.877885e-05
3.942919e-05
6.875915e-06
-5.240169e-07
-3.505863e-07
-2.318642e-07
-6.396435e-08
-2.557106e-10
3.542937e-10
3.742286e-10
2.048587e-10
8.955534e-11
3.924079e-11
1.216407e-11
3.512660e-13
-5.434572e-14
-6.009370e-14
-1.754383e-14
-7.637311e-16
-2.512011e-16
-3.930741e-17
-4.771270e-17
-2.504812e-17
-1.924072e-17
-7.661854e-18
-5.526419e-18
-2.999464e-18
-1.290806e-18
-5.961578e-19
-3.085435e-19
-1.636094e-19
-8.583321e-20
-4.259885e-20
-2.009877e-20
-9.515422e-21
-4.303389e-21
-1.868571e-21
-8.127460e-22
-3.086637e-22
-8.306938e-23
-7.274450e-24
-3.458279e-26
-1.245439e-25
-1.038708e-25
-1.731804e-26
-5.255142e-27
-8.168605e-27
-7.154291e-27
-4.822686e-27
-2.675068e-27
-1.386287e-27
-2.822679e-28
7.810006e-31
-1.165453e-29
-3.169140e-30
-7.721773e-31
-9.044721e-32
-9.578061e-32
-2.497482e-32
-7.697962e-33
-2.569321e-33
-6.089394e-34
-1.289085e-35
8.730842e-36
1.312223e-36
1.987896e-36
4.447346e-36
4.937398e-36
3.819658e-36
9.999688e-01
1.000031e+00
1.000043e+00
9.656769e-01
8.296365e-01
5.645287e-01
3.365135e-01
1.267215e-01
3.479683e-02
2.632854e-03
-1.021728e-04
6.532461e-05
6.033861e-05
4.322345e-05
1.847419e-05
3.109559e-06
-2.282545e-07
-2.164156e-07
-1.243708e-07
-5.549959e-08
-2.452275e-08
-1.099953e-08
-3.491163e-09
5.291477e-12
2.972920e-11
2.114620e-11
6.930821e-12
8.619297e-13
-5.411277e-15
-2.617310e-14
-1.463634e-14
-6.425403e-15
-2.794836e-15
-1.234609e-15
-3.929602e-16
-4.476049e-17
2.305556e-19
-2.918177e-19
-3.021344e-19
-3.832066e-19
-1.952845e-19
-3.175378e-20
-7.333674e-20
-3.548313e-20
-1.001441e-20
-4.879378e-21
-3.609116e-21
-1.521160e-23
-5.205044e-22
-2.721054e-22
-1.660568e-22
-9.779552e-23
-4.427597e-23
-1.947017e-23
-8.475968e-24
-3.035142e-24
-5.974102e-25
-9.016498e-27
-6.277270e-27
-4.223610e-27
-2.199438e-27
-1.489493e-27
-1.566360e-27
-1.326094e-27
-4.222700e-28
-4.793261e-30
5.592713e-30
2.538614e-30
1.159544e-30
4.603260e-31
1.818273e-31
2.182696e-32
-1.138172e-33
-7.508691e-34
-3.605770e-34
-1.729617e-34
-1.556860e-34
-1.870050e-34
-1.812600e-34
-1.060828e-34
9.999930e-01
1.000007e+00
1.000014e+00
9.984146e-01
9.484659e-01
8.110792e-01
5.426981e-01
3.576962e-01
1.479505e-01
5.010494e-02
9.778943e-03
2.232635e-04
1.691037e-05
3.551236e-05
3.226774e-05
2.119194e-05
1.077076e-05
4.584929e-06
1.942370e-06
7.550916e-07
1.348659e-07
-1.228677e-08
-8.854111e-09
-5.713959e-09
-1.422159e-09
-2.894091e-11
2.439010e-11
1.181504e-11
4.970631e-12
2.262725e-12
1.036732e-12
4.675683e-13
1.767363e-13
2.749697e-14
-8.571430e-17
-5.111910e-16
-2.590775e-16
-1.121126e-16
-4.903779e-17
-2.211236e-17
-1.027396e-17
-5.005521e-18
-2.408626e-18
-1.151438e-18
-5.363086e-19
-2.469301e-19
-1.098049e-19
-4.873054e-20
-1.826369e-20
-3.317276e-21
-2.072837e-22
-4.291887e-23
-2.457366e-23
-1.521297e-23
-7.932082e-24
-5.777027e-24
-3.585668e-24
-1.809559e-24
-7.792151e-25
-2.958682e-25
-5.803021e-26
-1.914562e-27
-1.039768e-27
-1.115273e-27
-1.155628e-27
-7.851591e-28
-3.707594e-28
-1.402438e-28
-3.288968e-29
-2.083613e-31
2.424798e-31
1.936496e-31
9.519746e-32
4.474807e-32
2.088526e-32
9.325840e-33
3.720058e-33
1.149968e-33
8.359712e-35
-6.070891e-35
9.999984e-01
1.000002e+00
9.999978e-01
1.000088e+00
9.920276e-01
9.349022e-01
7.949932e-01
5.168414e-01
3.729711e-01
1.555727e-01
5.839459e-02
1.605705e-02
2.117168e-03
5.322251e-05
3.092105e-05
2.000920e-05
1.016619e-05
4.578542e-06
2.016048e-06
1.092940e-06
7.974944e-07
3.344062e-07
4.916539e-08
-7.397799e-09
-4.922080e-09
-2.906613e-09
-1.283147e-09
-5.580358e-10
-2.392691e-10
-1.042896e-10
-3.593314e-11
-3.578629e-12
1.135509e-13
1.932335e-13
1.061749e-13
4.437162e-14
1.857966e-14
7.816517e-15
3.301226e-15
1.395698e-15
5.921083e-16
2.470838e-16
9.024543e-17
1.852857e-17
2.478639e-19
2.101109e-20
3.002555e-20
-1.957581e-20
-2.625914e-20
-2.015208e-20
-8.618046e-21
-3.048362e-21
-1.142484e-21
-4.246346e-22
-6.844620e-23
-2.439949e-24
-3.004094e-24
-5.283760e-25
-5.376794e-25
-5.066639e-25
-3.516204e-25
-1.884702e-25
-7.676654e-26
-1.243333e-26
-1.368963e-27
-6.530354e-28
-3.121827e-28
-2.537620e-28
-1.497243e-28
-7.438048e-29
-2.927409e-29
-1.211418e-29
-5.192510e-30
-2.261429e-30
-9.873095e-31
-3.755517e-31
-1.202509e-31
-2.552339e-32
3.470766e-34
4.751081e-35
9.999997e-01
1.000000e+00
9.999997e-01
1.000030e+00
9.998533e-01
9.850471e-01
9.218590e-01
7.795288e-01
5.212860e-01
3.784537e-01
1.650061e-01
6.663774e-02
2.044877e-02
4.280606e-03
3.801628e-04
7.835626e-05
4.707038e-05
2.552406e-05
9.599689e-06
2.147384e-06
7.863162e-07
6.594094e-07
4.014606e-07
1.967011e-07
8.116524e-08
3.314211e-08
1.344647e-08
5.673322e-09
1.577630e-09
-8.746900e-11
-7.592487e-11
-4.672711e-11
-2.206286e-11
-9.292290e-12
-3.955220e-12
-1.700275e-12
-7.368034e-13
-3.198760e-13
-1.402725e-13
-5.543934e-14
-1.061533e-14
2.125843e-16
1.610610e-16
9.847005e-17
3.400209e-17
3.120777e-18
5.488400e-19
4.359716e-20
-2.278095e-20
-1.907563e-20
-8.165450e-21
-1.995181e-21
-1.112540e-21
-7.416495e-22
-4.731135e-22
-2.298452e-22
-1.139726e-22
-4.541085e-23
-6.110673e-24
1.304353e-25
-1.578916e-25
-1.705305e-25
-1.423601e-25
-9.171350e-26
-5.011793e-26
-1.813017e-26
-2.214086e-27
4.907178e-29
-8.036229e-29
-1.303772e-29
8.426866e-30
7.580255e-30
1.624270e-30
-5.927885e-31
-8.651314e-31
-6.789069e-31
-3.958637e-31
-2.079716e-31
-9.483285e-32
-3.400207e-32
9.999999e-01
1.000000e+00
9.999998e-01
1.000012e+00
1.000012e+00
9.988739e-01
9.786874e-01
9.079976e-01
7.698454e-01
5.222049e-01
3.810969e-01
1.771436e-01
7.563637e-02
2.538861e-02
5.912660e-03
4.527994e-04
3.808585e-05
3.110838e-05
2.513730e-05
1.354047e-05
3.824718e-06
7.269471e-07
3.949001e-07
1.886466e-07
8.361211e-08
3.154716e-08
1.173062e-08
5.427833e-09
4.398606e-09
2.512079e-09
1.053157e-09
4.320689e-10
1.763598e-10
7.221557e-11
2.943425e-11
1.183247e-11
4.894320e-12
1.285305e-12
-1.004448e-13
-8.794988e-14
-6.185519e-14
-2.630391e-14
-2.870340e-15
1.210261e-16
1.047009e-16
4.254261e-17
1.529320e-18
-9.122183e-19
-3.965877e-19
-1.869127e-19
-8.710394e-20
-3.853676e-20
-1.080648e-20
-6.443832e-22
-3.544204e-22
-1.132270e-22
-1.072762e-22
-9.545251e-23
-6.410352e-23
-3.276129e-23
-1.266226e-23
-1.977566e-24
2.217992e-27
-6.437225e-26
-4.504665e-26
-4.285960e-26
-3.139686e-26
-1.487183e-26
-6.703043e-27
-3.110767e-27
-1.307120e-27
-5.547113e-28
-2.049742e-28
-5.052336e-29
-2.627269e-30
6.465973e-31
1.495165e-31
-8.689603e-32
-8.988927e-32
-8.783055e-33
9.999999e-01
1.000000e+00
1.000000e+00
1.000002e+00
1.000012e+00
9.999915e-01
9.972142e-01
9.709878e-01
8.969261e-01
7.616052e-01
5.237042e-01
3.741127e-01
1.874620e-01
8.579613e-02
3.198710e-02
8.910273e-03
1.230978e-03
3.991021e-05
2.561120e-05
2.115820e-05
1.537651e-05
6.602080e-06
1.955746e-06
8.422222e-07
4.713261e-07
2.318199e-07
9.827290e-08
2.360037e-08
4.791945e-09
1.727616e-09
1.039442e-09
4.485473e-10
7.881887e-11
7.270882e-11
1.050105e-11
8.941352e-12
4.959947e-12
3.777512e-12
2.044371e-12
4.355810e-13
-5.710773e-14
-5.043338e-14
-3.461301e-14
-1.117901e-14
-6.498567e-16
1.651981e-16
7.769196e-17
3.471031e-17
1.528808e-17
6.515988e-18
1.278663e-18
-6.836356e-20
-3.302614e-20
-1.945672e-20
-8.108258e-21
-3.302490e-21
-6.306903e-22
-8.471481e-23
-5.391042e-23
-3.100694e-23
-2.033659e-23
-1.521925e-23
-6.793668e-24
-2.057578e-24
-4.116548e-26
1.694376e-26
-2.308140e-26
-1.036539e-26
-4.233224e-27
-2.211150e-27
-1.267084e-27
-7.940057e-28
-4.828125e-28
-2.804304e-28
-1.465095e-28
-6.315259e-29
-2.724503e-29
-1.164950e-29
-4.891800e-30
-2.135157e-30
1.000000e+00
1.000000e+00
1.000000e+00
9.999999e-01
1.000007e+00
1.000008e+00
9.999615e-01
9.941924e-01
9.638197e-01
8.861199e-01
7.588991e-01
5.119343e-01
3.893331e-01
1.921004e-01
9.238888e-02
3.720549e-02
1.168446e-02
2.344221e-03
6.273080e-05
1.772596e-05
1.572156e-05
1.282074e-05
6.365292e-06
1.567873e-06
4.325711e-07
2.328715e-07
1.817405e-07
1.176714e-07
5.992369e-08
2.829704e-08
1.323656e-08
6.363415e-09
3.006902e-09
1.370182e-09
6.532316e-10
2.190168e-10
2.754648e-11
4.159017e-12
2.664863e-12
1.933501e-12
9.953711e-13
2.164890e-13
-3.514833e-14
-2.802081e-14
-1.674896e-14
-7.557481e-15
-3.299468e-15
-8.967843e-16
1.390969e-17
8.886147e-18
7.061435e-18
3.757703e-18
1.504579e-18
2.640732e-19
-8.580532e-21
-6.830710e-21
-4.397029e-21
-2.127876e-21
-9.295814e-22
-2.352623e-22
-5.013780e-23
-2.459928e-23
-1.451241e-23
-8.828163e-24
-4.873551e-24
-2.127727e-24
-9.441801e-25
-4.277162e-25
-1.953543e-25
-8.244139e-26
-2.072087e-26
-1.102295e-27
-4.868898e-28
-2.550209e-28
-1.494009e-28
-4.320098e-30
-3.070292e-30
-1.730420e-30
-3.433895e-30
-1.608651e-30
1.000000e+00
1.000000e+00
1.000000e+00
1.000000e+00
1.000002e+00
1.000006e+00
1.000007e+00
9.997452e-01
9.914251e-01
9.548134e-01
8.817386e-01
7.454228e-01
5.159167e-01
3.937866e-01
1.986269e-01
9.890072e-02
4.197848e-02
1.453099e-02
3.619967e-03
3.352400e-04
1.678016e-05
1.568041e-05
1.308087e-05
9.119338e-06
3.660304e-06
7.473883e-07
1.442623e-07
9.418173e-08
5.683743e-08
2.586856e-08
1.027378e-08
5.759644e-09
2.046630e-09
1.224969e-09
6.574293e-10
5.274245e-10
2.963638e-10
7.811411e-11
2.998704e-12
1.711672e-12
1.228299e-12
9.091400e-13
4.843059e-13
1.990116e-13
6.063737e-14
1.330190e-16
-3.256637e-15
-2.858491e-15
-1.602928e-15
-6.954055e-16
-2.964141e-16
-3.804890e-17
7.923434e-20
1.651765e-18
9.798566e-19
4.039817e-19
9.065862e-20
-4.079681e-22
-1.301072e-21
-7.783106e-22
-2.283694e-22
-1.340842e-23
-8.841455e-24
-8.156965e-24
-4.311531e-24
-1.978156e-24
-6.573970e-25
-3.091353e-25
-1.850226e-25
-7.633227e-26
-4.708244e-26
-3.966051e-26
-2.112150e-26
-9.381256e-27
-4.172085e-27
-1.808910e-27
-7.781333e-28
-3.467550e-28
-1.261478e-28
-4.569947e-29
1.000000e+00
1.000000e+00
1.000000e+00
1.000000e+00
1.000000e+00
1.000002e+00
1.000007e+00
9.999066e-01
9.998453e-01
9.863087e-01
9.508210e-01
8.715443e-01
7.384463e-01
5.161238e-01
3.971729e-01
2.051719e-01
1.051807e-01
4.636959e-02
1.743294e-02
4.995623e-03
5.984754e-04
-1.043622e-06
6.408380e-06
8.340209e-06
7.370243e-06
4.804661e-06
2.424766e-06
1.143677e-06
5.459249e-07
2.645180e-07
1.286850e-07
6.160731e-08
3.160242e-08
1.188299e-08
2.474539e-09
5.501626e-10
4.244921e-10
3.141058e-10
1.487393e-10
3.206491e-11
1.910264e-12
6.928051e-13
1.650188e-13
1.579248e-13
1.292188e-13
7.762500e-14
3.394623e-14
1.255921e-14
3.644505e-15
-1.726368e-16
-3.216246e-16
-2.852936e-16
-1.501633e-16
-4.617898e-17
-3.782553e-20
5.089516e-19
3.907581e-19
1.507220e-19
7.809745e-21
-2.382844e-21
-1.280122e-21
-6.810633e-22
-3.230131e-22
-1.493600e-22
-6.777767e-23
-2.707299e-23
-1.030198e-23
-3.845902e-24
-1.545911e-24
-5.366534e-25
-1.508559e-25
-3.934780e-26
-1.928435e-26
-9.522747e-27
-3.889356e-27
-1.589952e-27
-7.031529e-28
-3.531552e-28
-2.574716e-28
-8.329764e-29
1.000000e+00
1.000000e+00
1.000000e+00
1.000000e+00
1.000000e+00
1.000000e+00
1.000004e+00
9.999613e-01
9.999695e-01
9.977065e-01
9.838798e-01
9.447216e-01
8.634901e-01
7.326169e-01
5.157329e-01
4.001845e-01
2.115573e-01
1.116794e-01
5.052778e-02
2.037089e-02
7.028833e-03
1.717899e-03
2.166666e-04
6.691505e-06
-1.301493e-06
8.326616e-07
6.583994e-07
5.169452e-07
3.337339e-07
2.436968e-07
2.817373e-08
4.690132e-08
3.104099e-08
2.453478e-08
1.498283e-08
5.159293e-09
4.893829e-10
2.910764e-10
2.363446e-10
1.581248e-10
7.890769e-11
3.530809e-11
1.305578e-11
1.998919e-12
-4.530549e-14
6.758924e-14
1.164394e-14
7.814755e-15
6.563421e-15
3.996336e-15
1.508277e-15
3.448966e-16
-9.912691e-17
-1.053750e-16
-7.709955e-17
-2.886591e-17
-1.357718e-18
3.582137e-19
2.445564e-19
1.166459e-19
4.956043e-20
2.073523e-20
8.617637e-21
3.578720e-21
1.500907e-21
6.625085e-22
2.236424e-22
8.430013e-25
-3.645963e-24
-1.189138e-24
-6.073606e-25
-2.832979e-25
-1.306144e-25
-6.232200e-26
-2.933305e-26
-1.459320e-26
-4.995113e-27
-1.275819e-27
-2.983921e-28
-1.706031e-28
1.000000e+00
1.000000e+00
1.000000e+00
1.000000e+00
1.000000e+00
1.000000e+00
1.000002e+00
9.999847e-01
9.999918e-01
9.999915e-01
9.962547e-01
9.802362e-01
9.386830e-01
8.558981e-01
7.276372e-01
5.149776e-01
4.022608e-01
2.166813e-01
1.189376e-01
5.365961e-02
2.137339e-02
7.332674e-03
2.224440e-03
7.136711e-04
3.159980e-04
1.409261e-04
6.436186e-05
2.887664e-05
1.287621e-05
5.723241e-06
2.699511e-06
8.599148e-07
1.146187e-07
2.673350e-08
1.871758e-08
1.461727e-08
8.027526e-09
2.086603e-09
2.832660e-10
8.583946e-11
5.577894e-11
3.305174e-11
2.721484e-11
1.714025e-11
7.934887e-12
3.498756e-12
1.257221e-12
1.758076e-13
-3.015472e-15
1.559071e-15
1.550122e-15
8.573082e-16
3.758638e-16
9.075676e-17
-2.621042e-17
-4.141477e-17
-3.594979e-17
-1.686219e-17
-7.295169e-18
-2.912152e-18
-1.276133e-18
-5.758357e-19
-2.496083e-19
-1.069500e-19
-2.800100e-20
5.583010e-22
4.187925e-22
3.039909e-22
1.386979e-22
6.489777e-23
2.947301e-23
1.314367e-23
5.472600e-24
1.389232e-24
-1.159298e-26
-1.591618e-26
-1.297051e-26
-6.228838e-27
-1.888328e-27
-1.699077e-28
1.000000e+00
1.000000e+00
1.000000e+00
1.000000e+00
1.000000e+00
1.000000e+00
1.000001e+00
9.999938e-01
9.999935e-01
1.000005e+00
9.996751e-01
9.947721e-01
9.764123e-01
9.334742e-01
8.476137e-01
7.250086e-01
5.158351e-01
4.044335e-01
2.191707e-01
1.311100e-01
6.148502e-02
2.461806e-02
8.070500e-03
1.879478e-03
3.435417e-04
1.383301e-04
5.603588e-05
2.638100e-05
1.304896e-05
5.466624e-06
2.687176e-06
2.214357e-06
1.212449e-06
2.959072e-07
1.601327e-08
1.245528e-08
1.112147e-08
8.493983e-09
4.470409e-09
2.121893e-09
8.245440e-10
1.539657e-10
2.831097e-11
1.755005e-11
8.010884e-12
3.331672e-12
2.624021e-12
1.643164e-12
6.777951e-13
1.536298e-13
4.181942e-15
-4.417337e-16
-5.955880e-16
-1.382023e-16
-2.729791e-17
-6.945697e-18
-1.416905e-17
-1.328956e-17
-8.099245e-18
-4.204376e-18
-1.481544e-18
-5.485455e-19
-2.470570e-19
-1.356088e-19
-8.865728e-20
-4.916344e-20
-2.065328e-20
-8.724068e-21
-3.736307e-21
-1.659928e-21
-6.096445e-22
-7.485772e-23
8.764165e-24
5.292774e-24
2.929082e-24
9.737557e-25
7.465369e-26
-1.275860e-26
-7.514670e-27
-3.694532e-27
1.000000e+00
1.000000e+00
1.000000e+00
1.000000e+00
1.000000e+00
1.000000e+00
1.000000e+00
9.999986e-01
9.999947e-01
9.999970e-01
9.999916e-01
9.992588e-01
9.929768e-01
9.724009e-01
9.302066e-01
8.319116e-01
7.228698e-01
5.194850e-01
4.070721e-01
2.222374e-01
1.367914e-01
6.857222e-02
3.014512e-02
1.135706e-02
3.504909e-03
9.566923e-04
4.746916e-04
2.345479e-04
1.202217e-04
4.100067e-05
8.080874e-06
2.110478e-06
1.822984e-06
1.353622e-06
5.928437e-07
1.283863e-07
1.056949e-08
8.465234e-09
3.608471e-09
1.984588e-09
1.593657e-09
1.052769e-09
5.298068e-10
2.500008e-10
9.623534e-11
1.711289e-11
1.808527e-12
1.529133e-12
1.170315e-12
7.314442e-13
3.883253e-13
1.361481e-13
1.727235e-14
-1.219456e-15
-2.868023e-16
-1.366899e-16
-6.883950e-17
-3.329661e-17
-1.979819e-17
-1.185908e-17
-6.976006e-18
-3.636064e-18
-1.463418e-18
-2.429526e-19
-7.157516e-20
-4.931183e-20
-1.365501e-20
-6.261371e-21
-3.583045e-21
-1.508688e-21
-1.162990e-21
-7.739030e-22
-3.411219e-22
-6.594340e-23
4.292318e-24
2.377093e-24
1.452198e-24
6.419489e-25
2.672415e-25
1.128906e-25
1.000000e+00
1.000000e+00
1.000000e+00
1.000000e+00
1.000000e+00
1.000000e+00
1.000000e+00
1.000000e+00
9.999972e-01
9.999964e-01
9.999987e-01
9.999391e-01
9.989901e-01
9.902050e-01
9.711824e-01
9.210226e-01
8.231781e-01
7.195697e-01
5.218178e-01
4.078100e-01
2.280831e-01
1.365954e-01
6.948992e-02
3.125406e-02
1.174121e-02
3.380332e-03
5.788154e-04
2.432432e-04
1.255016e-04
1.010980e-04
5.671718e-05
1.568077e-05
1.791871e-06
1.212755e-06
1.030555e-06
6.890978e-07
3.373837e-07
1.556649e-07
5.978865e-08
1.060539e-08
1.065870e-09
8.953621e-10
3.543849e-10
2.477922e-10
1.904813e-10
1.196880e-10
5.753766e-11
1.840680e-11
1.474892e-12
6.682819e-13
3.693718e-13
2.836944e-13
1.691969e-13
7.804251e-14
3.211424e-14
1.361986e-14
5.979055e-15
2.680318e-15
1.200423e-15
5.554753e-16
1.700564e-16
-1.528285e-18
-2.518618e-18
-2.141081e-18
-1.019610e-18
-4.793257e-19
-2.203177e-19
-1.020251e-19
-4.617766e-20
-1.345839e-20
-1.065950e-21
-5.442706e-22
-5.771002e-22
-3.878109e-22
-1.985365e-22
-8.635963e-23
-3.184404e-23
-6.305440e-24
3.142307e-25
1.561370e-25
1.000000e+00
1.000000e+00
1.000000e+00
1.000000e+00
1.000000e+00
1.000000e+00
1.000000e+00
1.000000e+00
9.999994e-01
9.999973e-01
9.999980e-01
9.999746e-01
9.999773e-01
9.975584e-01
9.896839e-01
9.671908e-01
9.135068e-01
8.160461e-01
7.166258e-01
5.214839e-01
4.107529e-01
2.331911e-01
1.463447e-01
7.663338e-02
3.644005e-02
1.521202e-02
5.266777e-03
1.357343e-03
3.041301e-04
1.015719e-04
8.202805e-05
6.219779e-05
2.896317e-05
7.642148e-06
1.120780e-06
7.005153e-07
3.105777e-07
1.482028e-07
1.177534e-07
7.517682e-08
3.583227e-08
1.662747e-08
6.551107e-09
1.155526e-09
2.117245e-10
9.022219e-11
6.171219e-11
4.997319e-11
3.013142e-11
1.119763e-11
2.005485e-12
2.420918e-13
1.724183e-13
7.055709e-14
3.207869e-14
5.293418e-15
4.323640e-15
2.602434e-15
9.722211e-16
5.534728e-16
4.489941e-16
2.701642e-16
1.190601e-16
5.164371e-17
2.218311e-17
9.872079e-18
2.992584e-18
-1.006746e-21
-6.125620e-20
-4.595888e-20
-2.481713e-20
-6.757039e-21
-5.126959e-22
-1.488083e-22
-1.254928e-22
-7.444656e-23
-5.796165e-23
-3.651093e-23
-1.781267e-23
-7.306500e-24
1.000000e+00
1.000000e+00
1.000000e+00
1.000000e+00
1.000000e+00
1.000000e+00
1.000000e+00
1.000000e+00
1.000000e+00
9.999986e-01
9.999986e-01
9.999876e-01
9.999880e-01
9.996300e-01
9.969600e-01
9.879797e-01
9.629948e-01
9.062318e-01
8.112309e-01
7.119440e-01
5.210510e-01
4.143634e-01
2.385711e-01
1.469293e-01
7.673584e-02
3.694523e-02
1.604045e-02
5.945393e-03
1.824382e-03
4.430367e-04
9.431091e-05
6.303801e-05
4.698557e-05
3.102432e-05
1.497134e-05
5.824286e-06
2.500670e-06
7.313724e-07
1.057934e-07
6.069592e-08
2.889175e-08
1.551682e-08
1.337762e-08
8.450055e-09
4.248243e-09
1.385841e-09
1.206792e-10
3.507146e-11
2.849224e-11
2.267982e-11
1.439904e-11
6.876531e-12
3.188584e-12
1.351698e-12
5.979413e-13
2.728666e-13
1.197652e-13
5.651160e-14
1.858862e-14
1.396427e-15
3.442789e-17
2.093706e-16
4.544827e-17
3.446661e-17
1.760020e-17
9.435945e-18
7.620364e-18
4.513143e-18
1.284840e-18
-1.490873e-20
-3.372981e-20
-2.574632e-20
-1.336979e-20
-6.419132e-21
-2.972833e-21
-8.857793e-22
-5.996147e-23
-7.935425e-24
-1.261133e-23
-5.052350e-24
1.000000e+00
1.000000e+00
1.000000e+00
1.000000e+00
1.000000e+00
1.000000e+00
1.000000e+00
1.000000e+00
1.000000e+00
9.999994e-01
9.999995e-01
9.999938e-01
9.999927e-01
9.999867e-01
9.993553e-01
9.962176e-01
9.859978e-01
9.586139e-01
8.992970e-01
8.087962e-01
7.066849e-01
5.196607e-01
4.154611e-01
2.429690e-01
1.591257e-01
8.339169e-02
4.027721e-02
1.766798e-02
6.908674e-03
2.341833e-03
6.654709e-04
1.654960e-04
6.061774e-05
3.792936e-05
2.366621e-05
1.098553e-05
4.183903e-06
2.655229e-06
1.465952e-06
7.314067e-07
2.846315e-07
6.516162e-08
1.302550e-08
7.126305e-09
4.315904e-09
3.533243e-09
2.176487e-09
8.242413e-10
1.376230e-10
1.279188e-11
1.132545e-11
3.950305e-12
3.152367e-12
1.345423e-12
5.623786e-13
2.642459e-13
9.220729e-14
5.708960e-14
4.647508e-14
2.917047e-14
1.378169e-14
6.276647e-15
2.851826e-15
1.360144e-15
4.519392e-16
4.982403e-17
6.905499e-18
5.166337e-18
4.126029e-18
2.267202e-18
9.896455e-19
4.346367e-19
1.268618e-19
-3.472278e-21
-3.649562e-21
-2.958062e-21
-1.626618e-21
-7.491215e-22
-3.440513e-22
-1.304167e-22
1.000000e+00
1.000000e+00
1.000000e+00
1.000000e+00
1.000000e+00
1.000000e+00
1.000000e+00
1.000000e+00
1.000000e+00
9.999998e-01
9.999998e-01
9.999979e-01
9.999947e-01
9.999957e-01
9.999347e-01
9.991119e-01
9.953289e-01
9.837832e-01
9.546874e-01
8.884880e-01
8.115107e-01
7.049077e-01
5.184688e-01
4.165120e-01
2.444675e-01
1.648970e-01
8.849831e-02
4.341795e-02
1.933559e-02
7.750876e-03
2.739631e-03
8.288972e-04
2.265617e-04
7.683314e-05
4.331350e-05
2.844206e-05
1.341879e-05
3.448504e-06
1.389296e-06
6.844180e-07
5.611059e-07
3.610282e-07
1.856482e-07
6.638046e-08
1.038886e-08
2.813848e-09
2.163938e-09
1.691410e-09
1.055873e-09
5.025512e-10
2.311822e-10
1.067164e-10
5.018200e-11
2.225748e-11
9.851989e-12
4.610428e-12
1.575157e-12
1.769059e-13
4.923902e-14
2.838031e-14
1.385812e-14
5.963192e-15
1.914416e-15
1.354194e-15
1.096820e-15
6.367966e-16
1.656063e-16
5.027718e-18
3.133333e-18
2.068399e-18
1.820741e-19
4.083617e-19
3.413953e-19
1.952108e-19
8.278079e-20
3.412591e-20
1.369409e-20
5.419957e-21
2.125856e-21
8.588814e-22
1.000000e+00
1.000000e+00
1.000000e+00
1.000000e+00
1.000000e+00
1.000000e+00
1.000000e+00
1.000000e+00
1.000000e+00
9.999999e-01
9.999999e-01
9.999997e-01
9.999969e-01
9.999962e-01
9.999984e-01
9.998348e-01
9.989824e-01
9.937559e-01
9.846046e-01
9.402790e-01
8.937356e-01
7.989626e-01
7.032510e-01
5.214410e-01
4.170827e-01
2.477942e-01
1.704591e-01
9.364986e-02
4.706501e-02
2.143842e-02
8.827288e-03
3.228242e-03
1.017996e-03
2.735561e-04
7.514662e-05
3.917692e-05
2.974099e-05
1.953035e-05
9.345790e-06
3.041730e-06
5.875982e-07
3.520644e-07
1.900127e-07
1.517753e-07
9.526043e-08
3.914821e-08
8.198250e-09
1.710183e-09
8.158711e-10
4.624155e-10
1.932418e-10
1.064342e-10
3.952403e-11
1.456223e-11
7.122363e-12
4.653376e-12
3.734186e-12
2.263495e-12
1.078209e-12
4.885400e-13
2.322586e-13
1.094774e-13
3.765238e-14
5.776574e-15
1.171037e-15
8.309892e-16
6.272931e-16
3.265681e-16
1.455329e-16
6.744391e-17
2.279604e-17
1.876685e-18
9.755885e-20
1.563312e-19
8.523176e-20
1.931694e-20
1.047908e-20
4.347119e-21
1.341603e-21
4.959215e-22
1.000000e+00
1.000000e+00
1.000000e+00
1.000000e+00
1.000000e+00
1.000000e+00
1.000000e+00
1.000000e+00
1.000000e+00
1.000000e+00
9.999999e-01
9.999999e-01
9.999992e-01
9.999969e-01
9.999996e-01
9.999278e-01
9.999352e-01
9.969763e-01
9.968113e-01
9.755103e-01
9.436002e-01
8.871494e-01
7.906693e-01
7.010259e-01
5.218990e-01
4.173683e-01
2.502785e-01
1.743591e-01
9.761607e-02
5.030868e-02
2.347957e-02
9.955313e-03
3.811851e-03
1.289819e-03
3.705133e-04
8.401499e-05
3.053827e-05
1.985301e-05
1.457666e-05
9.738385e-06
5.071815e-06
1.885783e-06
5.527790e-07
1.566184e-07
8.752592e-08
7.320262e-08
4.776222e-08
2.460514e-08
1.150585e-08
5.374088e-09
2.591006e-09
1.212426e-09
5.722997e-10
2.820527e-10
9.842835e-11
1.412326e-11
2.761581e-12
1.604496e-12
6.265340e-13
4.911933e-13
2.339641e-13
1.115984e-13
8.897028e-14
4.907235e-14
1.386921e-14
7.455957e-16
4.803426e-16
2.738482e-16
9.352274e-17
6.267968e-17
5.478572e-17
3.324593e-17
1.510410e-17
6.650613e-18
3.040356e-18
1.323871e-18
5.812146e-19
2.551317e-19
1.110170e-19
4.807838e-20
1.000000e+00
1.000000e+00
1.000000e+00
1.000000e+00
1.000000e+00
1.000000e+00
1.000000e+00
1.000000e+00
1.000000e+00
1.000000e+00
1.000000e+00
9.999999e-01
9.999999e-01
9.999984e-01
9.999987e-01
9.999670e-01
9.999732e-01
9.986519e-01
9.986624e-01
9.925665e-01
9.749306e-01
9.412037e-01
8.822911e-01
7.836230e-01
6.994097e-01
5.244164e-01
4.205859e-01
2.545767e-01
1.790061e-01
1.014310e-01
5.354509e-02
2.548229e-02
1.099954e-02
4.333540e-03
1.563953e-03
5.123636e-04
1.491678e-04
4.534306e-05
1.903984e-05
1.173662e-05
7.783001e-06
4.236081e-06
2.299874e-06
1.153259e-06
4.171347e-07
7.329024e-08
3.887603e-08
2.506706e-08
1.177408e-08
4.880029e-09
2.488805e-09
9.888928e-10
4.606804e-10
2.750855e-10
2.258034e-10
1.367393e-10
6.448629e-11
2.955079e-11
1.411495e-11
7.000230e-12
2.374800e-12
4.062861e-13
9.043210e-14
7.344132e-14
5.168147e-14
2.780552e-14
1.265425e-14
6.008522e-15
2.069495e-15
2.357651e-16
1.536372e-17
3.156036e-17
1.029095e-17
6.143780e-18
1.718046e-18
1.136293e-18
5.926350e-19
8.133682e-20
7.888859e-20
4.696113e-20
1.000000e+00
1.000000e+00
1.000000e+00
1.000000e+00
1.000000e+00
1.000000e+00
1.000000e+00
1.000000e+00
1.000000e+00
1.000000e+00
1.000000e+00
1.000000e+00
1.000000e+00
9.999993e-01
9.999992e-01
9.999847e-01
9.999853e-01
9.993916e-01
9.993820e-01
9.979858e-01
9.905608e-01
9.730828e-01
9.372667e-01
8.796833e-01
7.714880e-01
6.917888e-01
5.232531e-01
4.221725e-01
2.585583e-01
1.839995e-01
1.048392e-01
5.701113e-02
2.783249e-02
1.220155e-02
4.827216e-03
1.739761e-03
5.754757e-04
1.821202e-04
6.042512e-05
2.372716e-05
1.253611e-05
7.724687e-06
3.587857e-06
1.632418e-06
1.007700e-06
6.559771e-07
3.309295e-07
1.710184e-07
8.596020e-08
4.207584e-08
2.087337e-08
1.040093e-08
4.274016e-09
9.408515e-10
2.177726e-10
1.146514e-10
5.419632e-11
2.386265e-11
1.197341e-11
6.897470e-12
5.526542e-12
3.040997e-12
9.139458e-13
8.431897e-14
2.571222e-14
2.312336e-14
8.233300e-15
5.970604e-15
5.000327e-15
3.021471e-15
1.392741e-15
6.203295e-16
2.872324e-16
1.290884e-16
5.913196e-17
2.684028e-17
1.240566e-17
5.823087e-18
1.832826e-18
2.461678e-19
1.000000e+00
1.000000e+00
1.000000e+00
1.000000e+00
1.000000e+00
1.000000e+00
1.000000e+00
1.000000e+00
1.000000e+00
1.000000e+00
1.000000e+00
1.000000e+00
1.000000e+00
9.999997e-01
9.999999e-01
9.999930e-01
9.999995e-01
9.997699e-01
9.995488e-01
9.994694e-01
9.970049e-01
9.892933e-01
9.704919e-01
9.338255e-01
8.782937e-01
7.661869e-01
6.869073e-01
5.219600e-01
4.232680e-01
2.619439e-01
1.899323e-01
1.067681e-01
5.991559e-02
3.035328e-02
1.378961e-02
5.609254e-03
2.045525e-03
6.772103e-04
2.132729e-04
7.118621e-05
2.709989e-05
1.360081e-05
9.828971e-06
4.468988e-06
1.543750e-06
6.625855e-07
3.293564e-07
1.726368e-07
7.747534e-08
3.811353e-08
2.117332e-08
1.050559e-08
8.400875e-09
5.429542e-09
2.709602e-09
1.303160e-09
6.242848e-10
3.091079e-10
1.115788e-10
2.273972e-11
5.261852e-12
4.585325e-12
3.218003e-12
1.810455e-12
8.253620e-13
3.895225e-13
1.379985e-13
1.689728e-14
2.975982e-15
2.998390e-15
1.206950e-15
6.212659e-16
1.641253e-16
8.847735e-17
4.663430e-17
2.080770e-17
7.501374e-18
5.531517e-18
4.670787e-18
2.353112e-18