# vtk DataFile Version 3.0
MUSCL
ASCII
DATASET STRUCTURED_POINTS
DIMENSIONS 80 80 1
ORIGIN 0 0 0
SPACING 0.0125 0.0125 1
POINT_DATA 6400
SCALARS Temperature double 1
LOOKUP_TABLE default
0.000000e+00
-6.739983e-01
-1.939470e-01
-2.456887e-02
-3.493149e-04
3.271337e-05
1.255931e-06
-4.710339e-07
-2.418258e-07
-8.834590e-08
-3.760128e-08
-1.728791e-08
-7.842160e-09
-3.451785e-09
-1.442035e-09
-4.158049e-10
-9.469173e-12
2.261082e-12
1.704515e-12
6.123902e-13
2.995903e-13
1.255938e-13
4.629823e-14
1.500588e-14
4.666999e-15
1.650568e-15
7.308483e-16
3.702804e-16
1.916748e-16
9.153555e-17
3.764897e-17
1.313365e-17
3.981122e-18
9.954803e-19
1.969313e-19
3.245104e-20
5.289243e-21
2.383452e-21
2.089355e-21
1.388128e-21
5.299604e-22
1.144288e-23
3.648759e-26
-1.489132e-24
-7.487033e-25
-2.460682e-25
-8.251838e-26
-2.907468e-26
-1.063187e-26
-4.084895e-27
-1.751086e-27
-6.331816e-28
-6.781353e-29
1.072849e-30
1.774024e-30
8.016510e-31
4.963009e-31
2.675701e-31
1.186463e-31
4.493167e-32
1.619878e-32
6.776178e-33
2.776394e-33
1.998455e-34
-3.615198e-35
-1.326550e-35
-7.727612e-36
-2.186265e-36
-2.681338e-38
1.019147e-38
1.936393e-38
1.430848e-38
6.778342e-39
3.408773e-39
1.699563e-39
7.575835e-40
3.083386e-40
1.287904e-40
5.596867e-41
2.844335e-41
1.326002e+00
6.739983e-01
1.939470e-01
2.456887e-02
3.493149e-04
-3.271337e-05
-1.255931e-06
4.710339e-07
2.418258e-07
8.834590e-08
3.760128e-08
1.728791e-08
7.842160e-09
3.451785e-09
1.442035e-09
4.158049e-10
9.469173e-12
-2.261082e-12
-1.704515e-12
-6.123902e-13
-2.995903e-13
-1.255938e-13
-4.629823e-14
-1.500588e-14
-4.666999e-15
-1.650568e-15
-7.308483e-16
-3.702804e-16
-1.916748e-16
-9.153555e-17
-3.764897e-17
-1.313365e-17
-3.981122e-18
-9.954803e-19
-1.969313e-19
-3.245104e-20
-5.289243e-21
-2.383452e-21
-2.089355e-21
-1.388128e-21
-5.299604e-22
-1.144288e-23
-3.648759e-26
1.489132e-24
7.487033e-25
2.460682e-25
8.251838e-26
2.907468e-26
1.063187e-26
4.084895e-27
1.751086e-27
6.331816e-28
6.781353e-29
-1.072849e-30
-1.774024e-30
-8.016510e-31
-4.963009e-31
-2.675701e-31
-1.186463e-31
-4.493167e-32
-1.619878e-32
-6.776178e-33
-2.776394e-33
-1.998455e-34
3.615198e-35
1.326550e-35
7.727612e-36
2.186265e-36
2.681338e-38
-1.019147e-38
-1.936393e-38
-1.430848e-38
-6.778342e-39
-3.408773e-39
-1.699563e-39
-7.575835e-40
-3.083386e-40
-1.287904e-40
-5.596867e-41
-2.844335e-41
1.041929e+00
9.580710e-01
5.986605e-01
2.397714e-01
5.878113e-02
3.896062e-03
1.291516e-04
-5.429779e-05
-2.971884e-05
-1.209804e-05
-4.962958e-06
-2.082271e-06
-8.713792e-07
-2.215680e-07
7.124992e-11
6.697394e-10
7.490690e-10
3.705355e-10
4.745854e-11
-1.320109e-12
-2.845506e-13
2.764484e-13
2.175340e-13
7.321716e-14
1.787565e-14
2.388787e-15
-4.466993e-16
-3.043696e-16
-1.952129e-16
-3.529807e-17
-3.604139e-17
-8.136653e-18
1.803870e-19
-2.910751e-19
-1.322245e-19
-8.043780e-23
1.305719e-20
4.138142e-21
-1.195521e-21
-1.144387e-21
-1.167664e-21
-8.214254e-22
-3.814901e-22
-1.688184e-22
-6.981619e-23
-2.660621e-23
-9.467935e-24
-3.233673e-24
-1.121659e-24
-4.188745e-25
-1.182810e-25
1.133574e-28
5.830228e-28
4.568926e-28
2.324432e-28
1.175677e-28
5.567602e-29
2.428450e-29
9.796529e-30
3.779011e-30
1.490477e-30
5.460379e-31
8.048856e-32
1.738924e-33
-2.311087e-33
-1.862491e-33
-5.692162e-34
2.062511e-36
3.589100e-36
2.956699e-36
1.774191e-36
1.153664e-36
7.429722e-37
4.238215e-37
2.110484e-37
9.707374e-38
4.388677e-38
2.006030e-38
8.712200e-39
4.996143e-39
9.989384e-01
1.001062e+00
8.858049e-01
5.930542e-01
2.706423e-01
8.405804e-02
1.618133e-02
1.184378e-03
4.638989e-04
2.019755e-04
7.363334e-05
9.228161e-06
-7.265582e-07
-8.060336e-07
-4.789760e-07
-1.725395e-07
-1.571636e-08
1.455566e-09
5.597383e-10
1.948314e-10
2.948363e-12
-5.298976e-13
-2.376605e-13
-1.709916e-13
-1.195525e-13
-6.512598e-14
-2.989766e-14
-1.173303e-14
-5.044376e-15
-2.023765e-15
-8.060937e-16
-3.279993e-16
-1.420852e-16
-5.753109e-17
-2.114957e-17
-7.745595e-18
-2.669738e-18
-8.286377e-19
-2.190914e-19
-7.674745e-21
4.762160e-21
3.235794e-22
-2.511464e-22
-1.550731e-22
-1.438355e-23
3.865001e-23
3.363479e-23
1.431201e-23
4.477257e-24
4.690739e-25
-1.111758e-25
-1.743198e-25
-9.896033e-26
-4.561011e-26
-2.102538e-26
-9.415911e-27
-4.065699e-27
-1.683995e-27
-6.748732e-28
-2.665303e-28
-8.796359e-29
-8.325487e-30
-8.536863e-32
3.284093e-31
2.348098e-31
5.660289e-32
-1.629575e-33
-1.243902e-33
-9.501629e-34
-3.264890e-34
-1.274591e-34
2.392273e-36
-4.586973e-35
-3.351640e-35
-1.605655e-35
-7.739750e-36
-3.714950e-36
-1.728391e-36
-7.467310e-37
-3.726833e-37
9.998861e-01
1.000114e+00
9.862642e-01
8.523682e-01
5.809132e-01
2.961962e-01
9.861516e-02
2.179031e-02
6.144424e-04
2.064484e-04
1.389614e-04
8.978391e-05
4.118053e-05
8.309258e-06
-4.606864e-07
-3.583897e-07
-2.359719e-07
-7.168577e-08
4.617141e-10
1.485489e-09
4.336420e-10
2.173924e-10
9.213723e-11
3.951505e-11
1.574135e-11
3.449351e-12
-3.852970e-15
-1.791728e-14
-5.355521e-15
-1.646441e-15
-5.234086e-16
-2.449792e-16
-1.146808e-16
-5.170726e-17
-1.006138e-17
-9.550779e-18
-5.013207e-18
-2.487114e-18
-1.171406e-18
-5.466492e-19
-1.937491e-19
-7.616251e-20
-3.327179e-20
-1.516436e-20
-6.767397e-21
-2.938523e-21
-9.750857e-22
-1.429671e-22
1.103471e-23
3.329551e-24
1.117512e-24
3.319037e-25
1.037087e-25
2.218989e-26
-3.675793e-27
-6.091713e-27
4.510734e-27
5.515832e-27
2.481264e-27
4.071037e-28
-6.889425e-29
-6.843602e-29
-4.382249e-29
-1.843126e-29
-2.401669e-30
8.217648e-32
1.347784e-31
6.215284e-32
-1.320660e-33
-9.671869e-34
-5.865572e-34
-5.973470e-34
1.402017e-33
1.692471e-33
1.058819e-33
5.049456e-34
2.331095e-34
1.031592e-34
2.492878e-35
1.838521e-36
9.999733e-01
1.000027e+00
1.000125e+00
9.656892e-01
8.295966e-01
5.645278e-01
3.365283e-01
1.266954e-01
3.475297e-02
2.642685e-03
5.103156e-05
6.167672e-05
5.940471e-05
4.336216e-05
1.864647e-05
2.475262e-06
-2.898800e-07
-2.245955e-07
-1.331049e-07
-5.861437e-08
-2.470999e-08
-1.071412e-08
-3.850600e-09
-3.432124e-10
3.791793e-11
1.741589e-11
7.149884e-12
3.078791e-13
-5.692550e-14
-2.258889e-14
-1.049989e-14
-4.835717e-15
-2.150054e-15
-9.846358e-16
-3.453452e-16
-2.080539e-17
1.729099e-18
-5.269851e-19
-7.436212e-19
-5.468947e-19
-3.170460e-20
2.573916e-20
1.990195e-21
-9.149385e-21
-6.800334e-21
-3.033981e-21
-2.179026e-21
-1.372514e-21
-6.489215e-22
-2.684255e-22
-1.113777e-22
-4.733743e-23
-2.058282e-23
-9.052448e-24
-3.978343e-24
-1.738488e-24
-6.587113e-25
-1.775799e-25
-8.600384e-27
6.838716e-28
6.386217e-28
2.198616e-28
2.688489e-29
-1.286814e-29
-1.306782e-29
-7.734083e-30
2.713207e-31
1.772999e-31
1.416170e-31
7.288797e-32
4.614359e-32
3.621137e-32
-1.218716e-32
-4.415114e-32
-3.861168e-32
-1.762974e-32
-4.666177e-33
4.723307e-35
1.173369e-34
6.270269e-35
9.999969e-01
1.000003e+00
1.000039e+00
9.984272e-01
9.484763e-01
8.111053e-01
5.427039e-01
3.576630e-01
1.478798e-01
5.005173e-02
9.567857e-03
7.808710e-05
-1.404279e-05
3.769795e-05
3.540558e-05
2.229149e-05
1.092156e-05
4.687464e-06
1.955821e-06
7.614422e-07
1.454552e-07
-1.009295e-08
-8.041776e-09
-5.333819e-09
-1.518739e-09
-7.326250e-12
1.158767e-11
1.143080e-11
5.142475e-12
2.159611e-12
9.240999e-13
4.038212e-13
1.460220e-13
2.297666e-14
-1.265910e-15
-5.068396e-16
-2.572236e-16
-1.138798e-16
-5.077377e-17
-2.393617e-17
-1.018462e-17
-4.458256e-18
-1.985106e-18
-8.809441e-19
-3.413494e-19
-4.573312e-20
-3.288019e-21
-8.975923e-22
-6.019861e-22
8.368443e-23
-4.238758e-23
-2.865002e-23
-1.903211e-23
-7.976963e-24
-3.920157e-24
-1.537317e-24
-1.212537e-24
-7.459412e-25
-3.961376e-25
-1.617141e-25
-5.289161e-26
-2.285166e-27
2.954691e-28
9.664540e-29
1.481599e-30
-1.930520e-29
-1.869388e-29
-9.692344e-30
-3.441316e-30
-5.380992e-31
1.202628e-31
7.841855e-32
4.638315e-33
-3.071886e-32
-3.225382e-32
-2.659018e-32
-2.016358e-32
-1.171222e-32
-5.531519e-33
-2.191692e-33
9.999999e-01
1.000000e+00
1.000004e+00
1.000037e+00
9.920718e-01
9.348952e-01
7.950287e-01
5.168831e-01
3.729686e-01
1.555759e-01
5.834263e-02
1.606042e-02
2.185191e-03
6.655123e-05
3.201478e-05
2.203591e-05
1.126850e-05
4.492113e-06
1.904884e-06
1.069738e-06
7.983969e-07
3.514109e-07
5.148836e-08
-3.938346e-09
-4.626067e-09
-2.745377e-09
-1.187915e-09
-5.127366e-10
-2.185725e-10
-9.467524e-11
-3.565253e-11
-5.219514e-12
1.158256e-13
1.651436e-13
8.893686e-14
3.784150e-14
1.599794e-14
6.740497e-15
2.846685e-15
1.207539e-15
5.216487e-16
2.107355e-16
5.201696e-17
-6.099933e-19
-5.190935e-19
-2.834673e-19
-8.107568e-20
-2.703393e-20
-2.011490e-20
-1.090866e-20
-5.341003e-21
-2.585025e-21
-1.251724e-21
-6.219862e-22
-2.043229e-22
-1.217403e-23
3.837551e-24
1.719702e-25
-1.006479e-25
-1.298355e-25
-1.048763e-25
-6.665143e-26
-2.336311e-26
-3.978155e-28
1.499593e-30
4.368374e-29
-1.035619e-29
-1.131603e-29
-1.001460e-29
-6.826838e-30
-4.239319e-30
-2.391793e-30
-2.387111e-30
-2.213216e-30
-5.645250e-31
-1.595589e-32
-6.577792e-33
-8.120936e-33
-4.722250e-33
-1.955200e-33
9.999999e-01
1.000000e+00
9.999993e-01
1.000030e+00
9.998571e-01
9.849945e-01
9.218155e-01
7.795356e-01
5.212946e-01
3.784415e-01
1.649629e-01
6.669626e-02
2.050250e-02
4.240625e-03
3.393542e-04
7.270961e-05
4.365180e-05
2.460609e-05
9.399040e-06
2.268205e-06
8.153120e-07
6.670339e-07
4.140319e-07
1.883928e-07
7.040445e-08
3.015787e-08
1.339396e-08
5.978277e-09
1.706653e-09
-7.034427e-11
-6.102324e-11
-3.957410e-11
-1.978649e-11
-8.549903e-12
-3.720037e-12
-1.617978e-12
-7.020237e-13
-3.035012e-13
-1.332616e-13
-5.125227e-14
-8.198914e-15
4.221263e-16
2.131616e-16
1.045935e-16
1.503412e-17
-5.358363e-19
-4.180866e-19
-1.059204e-19
-1.720446e-20
-9.531699e-21
-5.466164e-21
-2.300334e-21
-1.164402e-21
-6.094095e-22
-5.140985e-22
-3.117486e-22
-1.394333e-22
-6.083723e-23
-2.263806e-23
-3.329685e-24
5.253524e-26
-3.705036e-26
-3.340303e-26
-2.979842e-26
-1.314305e-26
-4.531660e-28
5.275348e-29
5.659436e-29
2.383785e-29
9.107670e-30
4.102389e-30
1.424734e-30
-1.483896e-30
-2.158192e-30
-2.506418e-30
-2.105011e-30
-1.099301e-30
-5.426412e-31
-2.459880e-31
-1.217773e-31
9.999999e-01
1.000000e+00
9.999998e-01
1.000013e+00
1.000016e+00
9.989016e-01
9.786465e-01
9.079481e-01
7.698141e-01
5.221153e-01
3.810695e-01
1.771995e-01
7.564529e-02
2.524143e-02
5.778722e-03
3.830371e-04
4.772673e-05
3.018840e-05
2.396956e-05
1.303498e-05
3.778246e-06
6.728671e-07
3.826916e-07
1.871365e-07
7.300636e-08
2.815915e-08
1.287491e-08
5.900123e-09
4.795903e-09
2.747011e-09
1.144646e-09
4.673366e-10
1.896632e-10
7.719685e-11
3.148742e-11
1.273667e-11
5.328674e-12
1.441855e-12
-9.773397e-14
-8.798910e-14
-6.133455e-14
-2.422762e-14
-2.306347e-15
1.251780e-16
1.182347e-16
5.006490e-17
1.500584e-18
-5.191285e-19
-3.362200e-19
-1.581822e-19
-7.721683e-20
-3.518636e-20
-1.430041e-20
-2.235123e-21
-3.812610e-22
-2.526177e-22
-1.026408e-22
-4.516050e-23
-2.998477e-23
-2.146825e-23
-9.828901e-24
-1.960673e-24
-4.440128e-26
-1.844352e-26
-2.285323e-26
-2.175188e-26
-1.171271e-26
-6.163910e-27
-3.132697e-27
-1.550003e-27
-7.396235e-28
-3.693044e-28
-1.286564e-28
-4.063630e-30
1.964153e-30
-1.105523e-30
3.683424e-32
-2.555298e-31
-1.382449e-31
-1.203836e-31
1.000000e+00
1.000000e+00
1.000000e+00
1.000002e+00
1.000013e+00
9.999961e-01
9.971850e-01
9.709979e-01
8.969512e-01
7.615256e-01
5.236921e-01
3.741175e-01
1.874546e-01
8.566391e-02
3.182169e-02
8.786902e-03
1.195898e-03
3.501831e-05
2.429093e-05
2.076725e-05
1.519352e-05
6.586503e-06
1.966683e-06
8.123525e-07
4.321104e-07
2.170770e-07
9.428425e-08
2.289609e-08
4.349341e-09
2.601283e-09
8.300822e-10
4.560215e-10
1.687918e-10
3.209514e-11
2.195546e-11
1.087183e-11
5.400885e-12
4.101329e-12
2.254238e-12
5.091841e-13
-5.399540e-14
-4.771332e-14
-3.309372e-14
-1.062852e-14
-2.004799e-16
1.534232e-16
9.257013e-17
4.190316e-17
1.848872e-17
7.642294e-18
1.560885e-18
-4.053808e-20
-2.681212e-20
-1.996960e-20
-9.246485e-21
-4.324705e-21
-1.849432e-21
-5.451479e-22
-1.360879e-22
-5.427394e-23
-2.487677e-23
-1.320064e-23
-5.976334e-24
-1.349376e-24
-4.791027e-26
5.079349e-27
-8.198703e-27
-5.173281e-27
-2.484066e-27
1.315713e-27
-2.840437e-28
-3.423935e-28
-2.940680e-28
-2.007193e-28
-1.076899e-28
-6.060372e-29
-3.332136e-29
-1.630371e-29
-4.061254e-30
-9.663944e-32
1.000000e+00
1.000000e+00
1.000000e+00
1.000000e+00
1.000007e+00
1.000009e+00
9.999456e-01
9.941092e-01
9.637755e-01
8.860813e-01
7.589037e-01
5.119261e-01
3.893430e-01
1.920501e-01
9.227859e-02
3.707835e-02
1.159366e-02
2.276501e-03
4.212480e-05
1.584671e-05
1.520355e-05
1.292711e-05
6.477552e-06
1.435811e-06
3.767739e-07
2.132568e-07
1.731364e-07
1.163291e-07
6.128526e-08
2.971278e-08
1.438773e-08
6.521656e-09
2.966002e-09
1.416438e-09
6.616547e-10
2.137476e-10
2.426860e-11
2.466605e-12
2.800013e-12
2.141536e-12
1.098258e-12
2.380170e-13
-3.119600e-14
-2.610196e-14
-1.576424e-14
-7.076382e-15
-3.150239e-15
-8.404629e-16
-2.759424e-18
1.048952e-17
8.086008e-18
4.069872e-18
1.778145e-18
7.169655e-19
1.370174e-19
-5.247710e-21
-2.984299e-21
-1.193184e-21
-3.093282e-22
-5.720787e-23
-2.271122e-23
-1.270188e-23
-7.005299e-24
-4.552000e-24
-2.313247e-24
-1.026614e-24
-5.034232e-25
-2.588127e-25
-1.333084e-25
-7.141945e-26
-2.883785e-26
-3.231810e-27
-4.135175e-29
-1.380770e-28
-7.141473e-29
-1.553864e-29
-1.961361e-29
-2.033721e-29
-1.871280e-29
-9.344659e-30
1.000000e+00
1.000000e+00
1.000000e+00
1.000000e+00
1.000002e+00
1.000006e+00
1.000008e+00
9.997113e-01
9.914109e-01
9.548323e-01
8.817842e-01
7.454433e-01
5.159435e-01
3.938270e-01
1.986102e-01
9.881757e-02
4.188526e-02
1.445090e-02
3.579419e-03
3.269660e-04
1.607002e-05
1.544873e-05
1.321747e-05
9.441207e-06
3.648138e-06
6.835433e-07
1.786859e-07
1.178751e-07
5.957769e-08
2.890801e-08
1.205535e-08
6.662155e-09
2.459751e-09
1.130880e-09
6.375834e-10
5.330827e-10
3.007255e-10
7.864102e-11
2.870876e-12
1.363471e-12
1.340291e-12
1.047846e-12
5.440305e-13
2.176764e-13
6.862379e-14
1.901080e-15
-3.450900e-15
-2.821725e-15
-1.575286e-15
-6.833873e-16
-3.011928e-16
-8.107849e-17
2.131999e-18
1.126589e-18
8.111266e-19
3.207321e-19
8.767743e-21
-4.238841e-21
-2.725584e-21
-1.364113e-21
-6.112191e-22
-2.084550e-22
-1.457962e-23
-4.629510e-24
-1.587390e-24
-8.583417e-25
-6.307889e-26
-1.532336e-25
-1.198239e-25
-6.195351e-26
-5.764300e-26
-4.188513e-26
-2.052653e-26
-1.009562e-26
-5.018378e-27
-2.083513e-27
-4.746229e-28
-5.788069e-30
-1.346553e-29
-8.534023e-30
1.000000e+00
1.000000e+00
1.000000e+00
1.000000e+00
1.000000e+00
1.000002e+00
1.000007e+00
9.998977e-01
9.998509e-01
9.863742e-01
9.509079e-01
8.715940e-01
7.384826e-01
5.161839e-01
3.972244e-01
2.051432e-01
1.051049e-01
4.628974e-02
1.738187e-02
4.982000e-03
5.896469e-04
-1.406218e-05
7.084088e-06
9.077393e-06
7.989138e-06
5.158730e-06
2.575097e-06
1.200431e-06
5.470042e-07
2.637499e-07
1.305228e-07
6.144096e-08
2.996796e-08
1.168137e-08
2.258653e-09
5.053033e-10
4.348552e-10
3.205681e-10
1.495833e-10
3.106870e-11
1.469418e-12
1.046937e-12
2.710797e-13
1.731173e-13
1.408621e-13
8.542245e-14
3.759046e-14
1.477848e-14
4.396450e-15
-2.505149e-16
-3.111682e-16
-2.647473e-16
-1.545266e-16
-4.596445e-17
7.030530e-19
5.988953e-19
4.609397e-19
2.180841e-19
9.445666e-20
2.282904e-20
-5.953712e-22
-4.255788e-22
-3.028466e-22
-1.296862e-22
-5.469082e-23
-2.420359e-23
-1.133281e-23
-5.374023e-24
-2.570319e-24
-5.982072e-25
-3.382753e-26
-3.119481e-26
-4.261471e-27
-5.046375e-27
-3.812602e-27
-3.264430e-27
-2.485705e-27
-1.320541e-27
-4.180529e-28
-7.178560e-29
1.000000e+00
1.000000e+00
1.000000e+00
1.000000e+00
1.000000e+00
1.000000e+00
1.000004e+00
9.999621e-01
1.000004e+00
9.977192e-01
9.838962e-01
9.447318e-01
8.635071e-01
7.326754e-01
5.157971e-01
4.002002e-01
2.115021e-01
1.116094e-01
5.047658e-02
2.035433e-02
7.019419e-03
1.732133e-03
2.180612e-04
6.004893e-06
4.642216e-06
4.161482e-06
1.793826e-06
5.425322e-07
2.425904e-07
1.850754e-07
1.389230e-08
3.796403e-08
2.985239e-08
2.441349e-08
1.481770e-08
4.786970e-09
5.374426e-10
2.728060e-10
2.402949e-10
1.651801e-10
8.293499e-11
3.690162e-11
1.374128e-11
1.968816e-12
1.430599e-13
7.510360e-14
2.853121e-14
1.464940e-14
9.743955e-15
5.831221e-15
2.383281e-15
3.929022e-16
-1.597989e-16
-1.301959e-16
-7.525325e-17
-3.361390e-17
-8.987992e-18
9.450883e-20
1.212972e-19
8.487952e-20
4.469856e-20
1.869435e-20
7.989244e-21
3.420925e-21
1.450948e-21
6.139505e-22
2.589340e-22
4.697554e-23
-3.151524e-24
-2.502331e-24
-1.587059e-24
-8.049206e-25
-3.822453e-25
-1.861119e-25
-6.304892e-26
-3.782179e-27
-1.409875e-27
-1.141644e-27
-1.100422e-27
-5.678849e-28
1.000000e+00
1.000000e+00
1.000000e+00
1.000000e+00
1.000000e+00
1.000000e+00
1.000002e+00
9.999851e-01
9.999978e-01
9.999933e-01
9.962599e-01
9.802436e-01
9.386951e-01
8.559363e-01
7.276966e-01
5.149955e-01
4.022318e-01
2.166207e-01
1.188909e-01
5.364022e-02
2.136334e-02
7.331147e-03
2.221244e-03
7.129149e-04
3.119721e-04
1.380521e-04
6.374878e-05
2.835377e-05
1.266935e-05
5.645224e-06
2.727568e-06
8.777361e-07
1.152355e-07
1.987741e-08
1.938752e-08
1.488721e-08
7.863893e-09
2.043654e-09
2.292100e-10
1.011483e-10
8.227877e-11
3.608068e-11
2.884323e-11
1.790098e-11
8.318938e-12
3.690442e-12
1.360005e-12
1.895177e-13
4.332913e-15
3.175225e-15
2.774069e-15
2.104758e-15
1.086874e-15
3.568538e-16
-3.120291e-17
-3.491605e-17
-3.032229e-17
-1.737420e-17
-7.646316e-18
-3.300824e-18
-1.393401e-18
-5.822553e-19
-2.410303e-19
-1.006425e-19
-2.893369e-20
-1.168415e-22
3.407925e-22
2.307847e-22
1.171417e-22
5.147920e-23
2.209021e-23
8.715551e-24
1.702407e-24
-1.724592e-25
-1.509792e-25
-1.010917e-25
-3.772978e-26
-5.702852e-27
-1.024146e-27
-3.650419e-28
1.000000e+00
1.000000e+00
1.000000e+00
1.000000e+00
1.000000e+00
1.000000e+00
1.000001e+00
9.999938e-01
9.999938e-01
1.000001e+00
9.996771e-01
9.947753e-01
9.764167e-01
9.334865e-01
8.476334e-01
7.250121e-01
5.157983e-01
4.043853e-01
2.191273e-01
1.310983e-01
6.148147e-02
2.461970e-02
8.063837e-03
1.882222e-03
2.934114e-04
1.372153e-04
6.195012e-05
2.851478e-05
9.725591e-06
5.726442e-06
2.766374e-06
2.165873e-06
1.185392e-06
2.984793e-07
2.612833e-08
1.452182e-08
1.137350e-08
8.390331e-09
4.318348e-09
2.136722e-09
8.572651e-10
1.664030e-10
2.666764e-11
1.806683e-11
7.013206e-12
3.501878e-12
2.792344e-12
1.755376e-12
8.286220e-13
2.180015e-13
1.314838e-15
2.002203e-15
6.243921e-16
7.146781e-16
4.853885e-16
2.014384e-16
7.576446e-17
2.402880e-17
5.830945e-18
1.329409e-19
-1.009199e-18
-5.851326e-19
-2.417357e-19
-1.222957e-19
-8.656514e-20
-4.879884e-20
-2.086969e-20
-9.005294e-21
-4.001403e-21
-1.480311e-21
-2.039423e-22
5.081692e-24
7.792189e-24
4.135120e-24
9.357398e-25
-1.115341e-25
-7.909000e-26
-5.026899e-26
-2.339503e-26
-1.047397e-26
1.000000e+00
1.000000e+00
1.000000e+00
1.000000e+00
1.000000e+00
1.000000e+00
1.000000e+00
9.999986e-01
9.999946e-01
9.999963e-01
9.999943e-01
9.992586e-01
9.929755e-01
9.723962e-01
9.301971e-01
8.318812e-01
7.228217e-01
5.194405e-01
4.070459e-01
2.222393e-01
1.368049e-01
6.858258e-02
3.014211e-02
1.135091e-02
3.472693e-03
9.461991e-04
4.537166e-04
2.306381e-04
1.120208e-04
4.103828e-05
8.106635e-06
2.258385e-06
1.804190e-06
1.321450e-06
5.890750e-07
1.212065e-07
7.038964e-09
7.168841e-09
2.622710e-09
2.089550e-09
1.641159e-09
1.048503e-09
5.083204e-10
2.480824e-10
9.299697e-11
1.745614e-11
2.146549e-12
1.138110e-12
8.070988e-13
6.818249e-13
3.846497e-13
1.384102e-13
1.632284e-14
-1.204499e-15
2.965373e-17
1.439080e-16
4.038473e-17
1.139774e-17
-1.146942e-18
-6.097075e-18
-5.045450e-18
-3.210045e-18
-1.506107e-18
-2.858417e-19
-6.266890e-20
-4.389907e-20
-1.888166e-20
-8.977676e-21
-3.446607e-21
-2.751639e-21
-1.819220e-21
-8.349731e-22
-1.652248e-22
2.452567e-24
3.749157e-24
2.241001e-24
8.932444e-25
3.552664e-25
1.103390e-25
1.623182e-26
1.000000e+00
1.000000e+00
1.000000e+00
1.000000e+00
1.000000e+00
1.000000e+00
1.000000e+00
1.000000e+00
9.999973e-01
9.999960e-01
9.999965e-01
9.999406e-01
9.989848e-01
9.901945e-01
9.711632e-01
9.209829e-01
8.231279e-01
7.195251e-01
5.218013e-01
4.078200e-01
2.281094e-01
1.366142e-01
6.949185e-02
3.124360e-02
1.174304e-02
3.375154e-03
5.522860e-04
2.375447e-04
1.204895e-04
9.746227e-05
5.425475e-05
1.535428e-05
1.986357e-06
1.315142e-06
1.015304e-06
6.701532e-07
3.445503e-07
1.561290e-07
5.887459e-08
1.057164e-08
1.121731e-09
1.041170e-09
4.755608e-10
2.493272e-10
1.847414e-10
1.171923e-10
5.916193e-11
2.038540e-11
2.298644e-12
3.663800e-13
3.681372e-13
2.946059e-13
1.849018e-13
8.636218e-14
3.829229e-14
1.700010e-14
7.576025e-15
3.368062e-15
1.471874e-15
6.626829e-16
2.024883e-16
4.435668e-18
-1.559293e-18
-1.877790e-18
-1.033604e-18
-4.949225e-19
-2.361209e-19
-1.098074e-19
-3.339795e-20
-2.456842e-21
-1.767330e-21
-1.302103e-21
-8.662765e-22
-4.474057e-22
-1.902022e-22
-8.334366e-23
-3.044355e-23
-4.242693e-24
3.049263e-25
1.148537e-25
1.000000e+00
1.000000e+00
1.000000e+00
1.000000e+00
1.000000e+00
1.000000e+00
1.000000e+00
1.000000e+00
9.999995e-01
9.999972e-01
9.999976e-01
9.999738e-01
1.000011e+00
9.975352e-01
9.896712e-01
9.671621e-01
9.134653e-01
8.160113e-01
7.166086e-01
5.214947e-01
4.107802e-01
2.332221e-01
1.463483e-01
7.662138e-02
3.643332e-02
1.520077e-02
5.232593e-03
1.358780e-03
2.930367e-04
9.796708e-05
8.352673e-05
6.174597e-05
2.893915e-05
7.412774e-06
9.466297e-07
6.357826e-07
2.850805e-07
1.537711e-07
1.191649e-07
7.777337e-08
3.851642e-08
1.777719e-08
6.570125e-09
1.110525e-09
9.078375e-11
1.091501e-10
6.681345e-11
4.921635e-11
3.031852e-11
1.184652e-11
2.001184e-12
2.709737e-13
1.698206e-13
2.815248e-14
2.237961e-14
1.171891e-14
1.579160e-15
2.729017e-15
1.145948e-15
6.373641e-16
5.255075e-16
3.085793e-16
1.350932e-16
5.728282e-17
2.447724e-17
8.378037e-18
6.977194e-19
-1.766410e-19
-1.072628e-19
-6.013300e-20
-1.750736e-20
-1.585188e-21
-4.535428e-22
-3.596778e-22
-1.781910e-22
-6.707595e-23
-5.895353e-23
-3.786950e-23
-1.877171e-23
-7.347816e-24
1.000000e+00
1.000000e+00
1.000000e+00
1.000000e+00
1.000000e+00
1.000000e+00
1.000000e+00
1.000000e+00
1.000000e+00
9.999985e-01
9.999986e-01
9.999876e-01
9.999893e-01
9.996282e-01
9.969486e-01
9.879535e-01
9.629595e-01
9.061983e-01
8.112171e-01
7.119478e-01
5.210719e-01
4.143948e-01
2.385802e-01
1.469198e-01
7.672343e-02
3.692878e-02
1.600617e-02
5.914994e-03
1.802040e-03
4.314285e-04
8.954529e-05
6.223747e-05
4.700178e-05
3.105637e-05
1.469250e-05
5.645188e-06
2.634543e-06
7.441563e-07
1.200014e-07
5.721671e-08
3.508132e-08
1.813577e-08
1.412612e-08
8.691233e-09
4.307302e-09
1.409293e-09
1.267895e-10
4.081089e-11
2.973527e-11
2.343809e-11
1.466174e-11
6.904547e-12
3.206030e-12
1.494506e-12
6.873453e-13
3.173346e-13
1.454838e-13
6.696774e-14
2.316666e-14
2.382509e-15
5.194995e-16
2.990439e-16
1.122576e-16
9.446839e-18
2.208618e-17
1.765312e-17
1.093859e-17
4.408020e-18
5.503535e-19
-7.575710e-20
-5.884986e-20
-3.334878e-20
-1.491307e-20
-6.733257e-21
-2.721294e-21
-6.462555e-22
-3.876744e-23
-2.866319e-23
-1.261704e-23
-7.070211e-24
1.000000e+00
1.000000e+00
1.000000e+00
1.000000e+00
1.000000e+00
1.000000e+00
1.000000e+00
1.000000e+00
1.000000e+00
9.999994e-01
9.999994e-01
9.999939e-01
9.999920e-01
9.999934e-01
9.993669e-01
9.962126e-01
9.859810e-01
9.585919e-01
8.992816e-01
8.087993e-01
7.066986e-01
5.196856e-01
4.154737e-01
2.429592e-01
1.591041e-01
8.336698e-02
4.023903e-02
1.762190e-02
6.873218e-03
2.318038e-03
6.527340e-04
1.596514e-04
5.793095e-05
3.671680e-05
2.312058e-05
1.081104e-05
4.172458e-06
2.618640e-06
1.469360e-06
7.244599e-07
2.909668e-07
6.639457e-08
1.536502e-08
8.575988e-09
4.557725e-09
3.490175e-09
2.151316e-09
8.170542e-10
1.382791e-10
1.848484e-11
1.374938e-11
5.538635e-12
3.237100e-12
1.507979e-12
3.807565e-13
2.129335e-13
1.236188e-13
6.700916e-14
5.440804e-14
3.320751e-14
1.512019e-14
6.860454e-15
3.190581e-15
1.258073e-15
1.704415e-16
8.326544e-18
1.044802e-17
8.263508e-18
5.060422e-18
2.421289e-18
1.034573e-18
4.545692e-19
1.310518e-19
-5.845235e-21
-4.730890e-21
-3.032430e-21
-1.518534e-21
-6.972912e-22
-3.230210e-22
-1.277482e-22
1.000000e+00
1.000000e+00
1.000000e+00
1.000000e+00
1.000000e+00
1.000000e+00
1.000000e+00
1.000000e+00
1.000000e+00
9.999998e-01
9.999998e-01
9.999981e-01
9.999941e-01
9.999943e-01
9.999376e-01
9.991141e-01
9.953242e-01
9.837752e-01
9.546817e-01
8.884923e-01
8.115192e-01
7.049306e-01
5.184924e-01
4.165211e-01
2.444570e-01
1.648764e-01
8.846201e-02
4.336676e-02
1.928896e-02
7.715928e-03
2.719176e-03
8.176854e-04
2.208960e-04
7.410244e-05
4.189812e-05
2.778470e-05
1.311466e-05
3.392488e-06
1.357980e-06
7.001545e-07
5.641058e-07
3.642935e-07
1.946266e-07
6.773531e-08
1.035539e-08
3.369247e-09
1.964862e-09
1.675223e-09
1.059426e-09
5.120956e-10
2.321510e-10
1.064451e-10
5.069879e-11
2.334983e-11
1.075808e-11
4.923044e-12
1.668550e-12
1.978635e-13
4.336230e-14
2.872147e-14
1.372278e-14
4.005247e-15
2.754344e-15
2.377178e-15
1.641296e-15
5.857133e-16
7.998027e-17
5.957138e-18
4.874615e-18
1.687779e-18
4.560686e-19
4.406968e-19
3.675915e-19
2.147452e-19
9.327088e-20
4.040362e-20
1.735641e-20
7.385716e-21
3.134771e-21
1.175519e-21
1.000000e+00
1.000000e+00
1.000000e+00
1.000000e+00
1.000000e+00
1.000000e+00
1.000000e+00
1.000000e+00
1.000000e+00
9.999999e-01
9.999998e-01
9.999998e-01
9.999967e-01
9.999957e-01
9.999969e-01
9.998374e-01
9.989818e-01
9.937463e-01
9.846009e-01
9.402864e-01
8.937410e-01
7.989650e-01
7.032543e-01
5.214378e-01
4.170747e-01
2.477782e-01
1.704291e-01
9.360221e-02
4.701401e-02
2.139610e-02
8.799678e-03
3.212311e-03
1.009945e-03
2.699699e-04
7.334673e-05
3.836183e-05
2.933832e-05
1.936068e-05
9.075732e-06
2.981755e-06
6.081003e-07
3.457888e-07
1.935788e-07
1.568518e-07
9.923911e-08
4.054946e-08
9.008508e-09
1.853212e-09
8.869621e-10
3.778083e-10
1.442775e-10
8.019343e-11
3.861113e-11
2.075577e-11
8.051176e-12
4.875174e-12
4.015695e-12
2.457379e-12
1.138002e-12
5.198439e-13
2.445405e-13
9.551527e-14
1.500393e-14
1.807864e-15
1.602923e-15
1.242531e-15
7.558441e-16
3.455016e-16
1.535733e-16
7.325812e-17
2.376207e-17
1.526492e-18
-2.262371e-19
1.998588e-19
-1.213820e-20
2.929496e-20
1.767271e-20
7.437619e-21
2.678389e-21
1.084789e-21
1.000000e+00
1.000000e+00
1.000000e+00
1.000000e+00
1.000000e+00
1.000000e+00
1.000000e+00
1.000000e+00
1.000000e+00
1.000000e+00
9.999999e-01
9.999999e-01
9.999991e-01
9.999968e-01
9.999971e-01
9.999280e-01
9.999113e-01
9.968958e-01
9.968140e-01
9.755245e-01
9.436160e-01
8.871592e-01
7.906704e-01
7.010160e-01
5.218825e-01
4.173518e-01
2.502495e-01
1.743150e-01
9.756320e-02
5.025971e-02
2.344342e-02
9.932602e-03
3.799731e-03
1.284379e-03
3.683285e-04
8.288438e-05
2.965748e-05
1.966991e-05
1.442071e-05
9.694974e-06
5.042480e-06
1.862278e-06
5.358448e-07
1.588563e-07
8.979113e-08
7.508015e-08
4.978234e-08
2.503621e-08
1.165327e-08
5.614640e-09
2.653267e-09
1.249699e-09
5.780500e-10
2.810040e-10
1.054672e-10
1.607783e-11
4.149593e-12
2.071773e-12
7.967041e-13
3.130270e-13
2.236499e-13
1.930278e-13
1.248873e-13
4.988867e-14
9.382513e-15
6.950043e-16
5.812133e-16
3.524949e-16
1.193974e-16
7.179519e-17
5.785492e-17
3.498199e-17
1.607338e-17
7.135111e-18
3.285077e-18
1.470820e-18
6.756658e-19
3.031664e-19
1.324670e-19
5.803177e-20
1.000000e+00
1.000000e+00
1.000000e+00
1.000000e+00
1.000000e+00
1.000000e+00
1.000000e+00
1.000000e+00
1.000000e+00
1.000000e+00
1.000000e+00
9.999999e-01
9.999999e-01
9.999983e-01
9.999988e-01
9.999665e-01
9.999697e-01
9.986480e-01
9.986590e-01
9.925671e-01
9.749401e-01
9.412189e-01
8.823064e-01
7.836332e-01
6.994111e-01
5.244074e-01
4.205679e-01
2.545371e-01
1.789560e-01
1.013772e-01
5.349920e-02
2.544991e-02
1.098028e-02
4.323841e-03
1.559647e-03
5.108087e-04
1.513623e-04
4.511645e-05
1.866515e-05
1.154069e-05
7.705240e-06
4.197716e-06
2.309501e-06
1.162892e-06
4.363690e-07
8.983060e-08
4.812571e-08
2.343697e-08
1.047478e-08
4.847063e-09
2.406573e-09
1.063837e-09
5.051914e-10
2.791284e-10
2.275297e-10
1.389377e-10
6.640434e-11
3.044309e-11
1.444069e-11
5.629892e-12
8.959469e-13
1.525009e-13
1.084171e-13
9.655215e-14
6.174626e-14
3.017621e-14
1.354090e-14
6.503884e-15
2.180953e-15
2.386924e-16
4.177555e-17
2.711458e-17
1.249934e-17
4.555495e-18
2.934627e-18
1.177343e-18
4.995627e-19
2.927851e-19
8.411357e-20
5.862633e-20
1.000000e+00
1.000000e+00
1.000000e+00
1.000000e+00
1.000000e+00
1.000000e+00
1.000000e+00
1.000000e+00
1.000000e+00
1.000000e+00
1.000000e+00
1.000000e+00
1.000000e+00
9.999992e-01
9.999994e-01
9.999851e-01
9.999882e-01
9.993922e-01
9.993953e-01
9.979976e-01
9.905422e-01
9.730721e-01
9.372674e-01
8.796905e-01
7.714985e-01
6.917977e-01
5.232505e-01
4.221566e-01
2.585204e-01
1.839547e-01
1.047918e-01
5.697122e-02
2.780493e-02
1.218559e-02
4.818999e-03
1.736776e-03
5.743060e-04
1.809128e-04
5.964480e-05
2.330445e-05
1.229605e-05
7.584395e-06
3.504136e-06
1.625777e-06
9.928329e-07
6.368295e-07
3.278771e-07
1.712840e-07
8.572317e-08
4.217743e-08
2.075577e-08
1.073342e-08
4.319913e-09
9.243251e-10
1.824115e-10
1.232845e-10
6.287188e-11
2.987400e-11
1.473890e-11
1.141947e-11
7.490297e-12
3.148817e-12
6.153162e-13
7.684962e-14
6.211899e-14
2.597846e-14
1.331847e-14
6.507326e-15
5.194616e-15
3.164420e-15
1.443195e-15
6.550881e-16
3.081282e-16
1.413668e-16
6.492238e-17
2.944441e-17
1.331214e-17
6.304734e-18
2.065680e-18
2.553823e-19
1.000000e+00
1.000000e+00
1.000000e+00
1.000000e+00
1.000000e+00
1.000000e+00
1.000000e+00
1.000000e+00
1.000000e+00
1.000000e+00
1.000000e+00
1.000000e+00
1.000000e+00
9.999997e-01
9.999997e-01
9.999932e-01
9.999959e-01
9.997749e-01
9.995631e-01
9.994688e-01
9.969863e-01
9.892667e-01
9.704653e-01
9.338053e-01
8.782866e-01
7.661960e-01
6.869217e-01
5.219652e-01
4.232600e-01
2.619159e-01
1.898977e-01
1.067310e-01
5.988496e-02
3.033276e-02
1.377793e-02
5.604179e-03
2.042951e-03
6.756955e-04
2.124384e-04
7.075693e-05
2.682028e-05
1.338719e-05
9.607985e-06
4.267523e-06
1.386275e-06
6.248365e-07
2.907811e-07
1.574106e-07
7.906814e-08
4.085158e-08
1.934701e-08
1.083404e-08
8.614052e-09
5.500534e-09
2.780321e-09
1.322566e-09
6.386230e-10
2.565233e-10
5.158475e-11
9.451568e-12
7.071569e-12
5.983769e-12
3.876316e-12
1.905682e-12
8.908071e-13
4.202578e-13
1.447466e-13
2.010340e-14
4.183951e-15
3.177288e-15
1.314634e-15
3.782997e-16
2.893509e-16
7.309523e-17
4.469222e-17
1.704470e-17
1.311116e-17
6.477043e-18
5.233632e-18
2.672514e-18
1.000000e+00
1.000000e+00
1.000000e+00