# vtk DataFile Version 3.0
MUSCL
ASCII
DATASET STRUCTURED_POINTS
DIMENSIONS 80 80 1
ORIGIN 0 0 0
SPACING 0.0125 0.0125 1
POINT_DATA 6400
SCALARS Temperature double 1
LOOKUP_TABLE default
0.000000e+00
-6.739994e-01
-1.939486e-01
-2.456594e-02
-3.499640e-04
3.256827e-05
3.508855e-06
-1.117797e-07
-1.271053e-07
-6.216661e-08
-3.272953e-08
-1.630735e-08
-7.472403e-09
-3.262538e-09
-1.404479e-09
-2.938546e-10
4.202901e-12
4.330291e-12
2.004954e-12
7.837552e-13
3.231356e-13
1.347812e-13
5.761364e-14
2.480940e-14
1.048185e-14
4.264395e-15
1.651926e-15
6.074362e-16
2.138303e-16
7.352449e-17
2.529145e-17
7.191200e-18
1.651616e-18
3.831676e-19
1.083444e-19
2.340627e-20
4.176303e-21
7.406806e-22
4.845358e-22
4.319286e-22
6.051648e-23
-5.578456e-24
-3.518948e-24
-2.161872e-24
-1.072778e-24
-4.938506e-25
-2.229968e-25
-1.001548e-25
-4.453497e-26
-1.953690e-26
-8.477385e-27
-3.664751e-27
-1.591869e-27
-7.175729e-28
-1.455983e-28
1.091831e-30
2.546724e-30
6.900765e-31
3.524581e-31
1.887590e-31
1.004639e-31
2.950884e-32
1.953319e-34
3.129206e-33
4.954584e-33
3.768966e-33
1.915973e-33
9.515940e-34
4.428745e-34
1.927533e-34
6.235736e-35
1.173696e-35
-2.416030e-37
-8.542001e-38
-4.391029e-38
-4.983758e-39
8.898447e-39
3.785451e-39
8.943408e-40
2.904758e-40
1.326001e+00
6.739994e-01
1.939486e-01
2.456594e-02
3.499640e-04
-3.256827e-05
-3.508855e-06
1.117797e-07
1.271053e-07
6.216661e-08
3.272953e-08
1.630735e-08
7.472403e-09
3.262538e-09
1.404479e-09
2.938546e-10
-4.202901e-12
-4.330291e-12
-2.004954e-12
-7.837552e-13
-3.231356e-13
-1.347812e-13
-5.761364e-14
-2.480940e-14
-1.048185e-14
-4.264395e-15
-1.651926e-15
-6.074362e-16
-2.138303e-16
-7.352449e-17
-2.529145e-17
-7.191200e-18
-1.651616e-18
-3.831676e-19
-1.083444e-19
-2.340627e-20
-4.176303e-21
-7.406806e-22
-4.845358e-22
-4.319286e-22
-6.051648e-23
5.578456e-24
3.518948e-24
2.161872e-24
1.072778e-24
4.938506e-25
2.229968e-25
1.001548e-25
4.453497e-26
1.953690e-26
8.477385e-27
3.664751e-27
1.591869e-27
7.175729e-28
1.455983e-28
-1.091831e-30
-2.546724e-30
-6.900765e-31
-3.524581e-31
-1.887590e-31
-1.004639e-31
-2.950884e-32
-1.953319e-34
-3.129206e-33
-4.954584e-33
-3.768966e-33
-1.915973e-33
-9.515940e-34
-4.428745e-34
-1.927533e-34
-6.235736e-35
-1.173696e-35
2.416030e-37
8.542001e-38
4.391029e-38
4.983758e-39
-8.898447e-39
-3.785451e-39
-8.943408e-40
-2.904758e-40
1.041911e+00
9.580888e-01
5.985605e-01
2.397414e-01
5.878937e-02
3.852514e-03
-1.114021e-04
-6.088352e-05
-2.986748e-05
-1.201807e-05
-5.079932e-06
-2.194875e-06
-9.247898e-07
-2.406017e-07
-3.101652e-09
6.968681e-10
8.519998e-10
4.400164e-10
8.884172e-11
-1.359816e-12
-3.741800e-13
-9.241779e-14
-2.343093e-14
5.090731e-14
5.257529e-14
2.899180e-14
1.335096e-14
3.984755e-15
6.619303e-16
-9.409492e-17
-3.764554e-17
-1.656046e-17
-6.693280e-18
-2.060293e-18
-4.214002e-19
-1.386130e-20
9.916225e-21
4.807939e-21
8.514820e-22
-2.171094e-22
-2.632751e-22
-4.801835e-22
-3.718580e-22
-1.912933e-22
-9.665048e-23
-4.705144e-23
-2.224878e-23
-1.027438e-23
-4.649550e-24
-2.066373e-24
-9.022172e-25
-4.014536e-25
-1.219928e-25
-1.106267e-26
5.421160e-28
4.241770e-28
1.527476e-28
6.458856e-29
3.361484e-29
1.976385e-29
6.636233e-30
-3.593598e-32
-5.820050e-32
-2.613708e-32
3.103735e-31
2.927717e-31
1.569243e-31
6.542072e-32
1.577570e-32
8.809461e-34
-2.889787e-35
-8.078840e-35
-3.898848e-35
-1.313917e-35
-4.210992e-36
-6.255194e-37
1.870280e-37
1.505312e-37
5.190529e-38
1.608122e-38
9.992279e-01
1.000772e+00
8.861298e-01
5.933282e-01
2.706456e-01
8.408626e-02
1.594154e-02
1.138668e-03
4.528712e-04
1.987835e-04
7.214423e-05
8.556912e-06
-1.190265e-06
-8.756618e-07
-4.974614e-07
-1.790618e-07
-1.594714e-08
7.238380e-10
4.737993e-10
2.072744e-10
3.378733e-12
-1.648935e-12
-1.496430e-12
-4.741390e-13
-1.017482e-13
-9.660751e-15
1.404812e-14
1.126542e-14
6.137213e-15
2.851311e-15
9.599175e-16
2.372063e-16
3.917537e-17
1.678696e-18
-6.705575e-19
-1.682663e-18
-9.927497e-19
-3.805692e-19
-1.294863e-19
-2.516063e-20
1.573985e-21
2.325287e-24
-2.295786e-23
-9.723345e-23
-7.726057e-23
-2.943842e-23
-4.547996e-24
-3.764455e-25
-8.128863e-25
-7.704962e-25
-5.926519e-25
-4.297273e-25
-3.230259e-25
-1.886456e-25
-8.416163e-26
-3.390133e-26
-1.357645e-26
-5.947677e-27
-2.651357e-27
-3.762094e-28
9.540349e-30
1.242907e-29
7.436293e-30
3.665613e-30
-6.371937e-30
-5.540717e-30
1.849085e-31
9.058127e-32
7.381825e-32
4.179397e-32
1.788841e-32
6.596676e-33
2.018395e-33
5.276461e-34
5.598232e-35
-4.574741e-36
-4.782184e-36
-3.702299e-36
-1.566121e-36
-6.511752e-37
9.999096e-01
1.000090e+00
9.863401e-01
8.524374e-01
5.808423e-01
2.963095e-01
9.854286e-02
2.165986e-02
5.391057e-04
1.437595e-04
1.336501e-04
9.026522e-05
4.083253e-05
8.044311e-06
-5.616497e-07
-3.684626e-07
-2.463171e-07
-6.923270e-08
4.586157e-10
2.892504e-10
2.954632e-10
1.776788e-10
8.209519e-11
3.704035e-11
1.252088e-11
2.249041e-13
-7.397082e-14
-4.172899e-14
-1.074853e-14
2.499282e-15
1.763846e-15
9.096482e-16
3.774534e-16
1.197726e-16
1.779975e-17
1.332356e-19
-1.089878e-18
-7.698985e-19
-4.246439e-19
-2.098106e-19
-8.347110e-20
-3.471863e-20
-1.713362e-20
-8.819475e-21
-4.627048e-21
-2.361427e-21
-1.161780e-21
-5.530977e-22
-2.562056e-22
-1.139338e-22
-3.182558e-23
-1.126637e-24
6.612244e-25
-7.568608e-26
-6.335571e-26
6.003576e-26
1.672698e-26
1.399487e-27
-2.748577e-27
-2.670681e-27
-1.550181e-27
-2.872356e-28
4.427821e-30
7.367470e-30
-5.325966e-30
-1.328360e-29
-1.299092e-29
-6.390554e-30
-2.486839e-30
-7.246300e-31
-1.120258e-31
6.649392e-33
5.761775e-33
2.615975e-33
1.031352e-33
3.780849e-34
1.850131e-34
9.687652e-35
3.559212e-35
7.620190e-36
9.999730e-01
1.000027e+00
1.000085e+00
9.657239e-01
8.296239e-01
5.647058e-01
3.365453e-01
1.266270e-01
3.471497e-02
2.594171e-03
-1.959469e-05
6.743960e-05
6.080563e-05
4.340177e-05
1.837508e-05
2.776279e-06
-2.659364e-07
-2.180588e-07
-1.293631e-07
-5.704443e-08
-2.485600e-08
-1.109568e-08
-3.520389e-09
-5.828734e-11
1.570923e-11
1.803825e-11
6.529430e-12
5.472028e-13
-3.161338e-14
-2.080818e-14
-9.259016e-15
-4.115551e-15
-1.837896e-15
-8.526469e-16
-2.567295e-16
-3.083654e-17
2.641796e-20
1.256780e-19
2.846019e-20
-2.447658e-20
-4.657556e-20
-1.495037e-20
1.817175e-20
1.739470e-20
5.861079e-21
1.061660e-21
-1.968735e-22
-2.870378e-22
-2.283893e-22
-1.650822e-22
-1.064962e-22
-5.691674e-23
-2.580268e-23
-1.142494e-23
-4.947684e-24
-2.164744e-24
-8.579867e-25
-1.698107e-25
1.288101e-27
-9.534693e-28
-1.359777e-27
-1.288071e-27
-1.088575e-27
-4.720986e-28
-3.709920e-30
-1.219178e-29
-1.287459e-29
-1.057743e-29
-6.840626e-30
-3.904367e-30
-1.967069e-30
-8.457805e-31
-3.272802e-31
-1.147538e-31
-3.810729e-32
-1.401326e-32
-3.503361e-33
6.508765e-35
7.283834e-35
4.796013e-35
9.999954e-01
1.000005e+00
1.000039e+00
9.984185e-01
9.483516e-01
8.110143e-01
5.426346e-01
3.576337e-01
1.479021e-01
5.008300e-02
9.692136e-03
2.733208e-04
-6.455370e-06
4.190648e-05
3.530791e-05
2.182996e-05
1.082759e-05
4.602372e-06
1.943545e-06
7.813955e-07
1.528663e-07
-1.069392e-08
-8.361528e-09
-5.328609e-09
-1.416781e-09
-1.366009e-11
1.538854e-11
1.120461e-11
4.436908e-12
1.802563e-12
7.639064e-13
3.324543e-13
1.132386e-13
1.097152e-14
-2.180065e-16
-4.831688e-16
-2.382256e-16
-1.021880e-16
-4.433779e-17
-1.955911e-17
-8.737383e-18
-3.966097e-18
-1.795453e-18
-8.094238e-19
-3.638890e-19
-1.634639e-19
-7.214856e-20
-2.564810e-20
-1.811010e-21
4.106161e-22
-7.258553e-23
4.050050e-23
-1.007091e-23
-7.475154e-24
-4.410410e-24
-2.020727e-24
-1.152855e-24
-8.488836e-25
-4.060350e-25
-1.309369e-25
-1.307036e-26
-1.321603e-27
-8.232699e-28
-8.948662e-28
-8.544499e-28
-3.303190e-28
-1.597700e-29
-9.953725e-30
-5.656940e-30
-3.246875e-30
-1.590847e-30
-6.560960e-31
-2.578022e-31
-9.722605e-32
-3.666488e-32
-1.871850e-32
-1.061512e-32
-5.851914e-33
-2.771485e-33
-1.278159e-33
9.999981e-01
1.000002e+00
1.000012e+00
9.999928e-01
9.919016e-01
9.349541e-01
7.949706e-01
5.167726e-01
3.729031e-01
1.555631e-01
5.838188e-02
1.582044e-02
2.124111e-03
4.680818e-05
2.521101e-05
2.144028e-05
1.090921e-05
4.462186e-06
1.971827e-06
1.069539e-06
7.757080e-07
3.365399e-07
4.666738e-08
-5.777416e-09
-4.840288e-09
-2.807887e-09
-1.229023e-09
-5.180980e-10
-2.158973e-10
-9.192630e-11
-3.255004e-11
-3.457173e-12
3.316658e-13
1.445385e-13
7.451340e-14
3.041714e-14
1.233508e-14
5.019478e-15
2.093140e-15
9.053419e-16
4.052230e-16
1.837769e-16
7.769980e-17
2.145869e-17
4.679533e-18
1.411620e-18
3.191141e-19
3.857085e-20
-2.015008e-20
-1.624874e-20
-6.925059e-21
-2.872111e-21
-1.196208e-21
-5.042207e-22
-1.851852e-22
-4.395093e-23
-2.217752e-24
-6.128325e-25
-5.121880e-25
-3.374766e-25
-1.909135e-25
-8.894379e-26
-2.498102e-26
-8.945134e-28
-6.635259e-28
-8.719140e-28
-7.843153e-28
-4.361569e-28
-2.425416e-28
-1.287091e-28
-6.370777e-29
-2.930592e-29
-1.302022e-29
-4.810813e-30
-9.264059e-31
-3.515154e-32
-9.493486e-33
7.176599e-33
3.981774e-34
-3.178221e-34
9.999990e-01
1.000001e+00
1.000001e+00
1.000023e+00
1.000061e+00
9.852018e-01
9.218944e-01
7.795246e-01
5.212278e-01
3.784320e-01
1.649323e-01
6.656580e-02
2.047567e-02
4.235415e-03
3.750407e-04
8.039454e-05
4.769133e-05
2.536389e-05
9.597373e-06
2.135080e-06
7.629587e-07
6.352957e-07
3.955519e-07
1.945620e-07
8.231520e-08
3.418955e-08
1.410635e-08
5.995867e-09
1.591041e-09
-9.073117e-11
-6.492810e-11
-4.036294e-11
-1.936778e-11
-8.363672e-12
-3.596957e-12
-1.544568e-12
-6.645778e-13
-2.875200e-13
-1.247694e-13
-5.590132e-14
-1.496787e-14
-1.649413e-16
1.386855e-16
7.729668e-17
2.192624e-17
1.888174e-18
5.649442e-19
7.977103e-20
-1.262265e-20
-8.481295e-21
-2.252984e-21
-8.620170e-22
-6.494664e-22
-4.927757e-22
-3.445849e-22
-1.952200e-22
-6.970676e-23
-9.864586e-24
4.696859e-25
-9.600970e-26
-1.227778e-25
-8.655186e-26
-6.330802e-26
-4.262273e-26
-1.221852e-26
-1.118050e-27
-1.972701e-28
-2.778050e-28
-1.782827e-28
-1.221832e-28
-3.975915e-30
-1.991396e-29
-1.315098e-29
-9.168525e-30
-5.527002e-30
-2.520785e-30
-1.047658e-30
-4.501461e-31
-1.966020e-31
-7.823878e-32
9.999997e-01
1.000000e+00
1.000000e+00
1.000010e+00
1.000024e+00
9.989179e-01
9.787293e-01
9.080406e-01
7.698557e-01
5.221711e-01
3.810274e-01
1.771523e-01
7.566900e-02
2.533656e-02
5.876910e-03
4.363645e-04
3.114918e-05
2.975888e-05
2.428517e-05
1.344670e-05
3.877876e-06
6.625595e-07
3.645557e-07
1.899101e-07
8.057978e-08
2.853898e-08
1.184482e-08
6.009803e-09
4.842739e-09
2.726065e-09
1.154561e-09
4.967910e-10
2.162684e-10
9.289294e-11
3.917540e-11
1.612448e-11
6.771454e-12
1.899669e-12
-8.080774e-15
-6.479134e-14
-5.109348e-14
-2.589382e-14
-4.246026e-15
3.489770e-17
7.698335e-17
3.884846e-17
1.087257e-18
-3.023390e-19
-2.999209e-19
-1.194449e-19
-3.907252e-20
-1.296403e-20
-7.633727e-22
-4.821625e-22
-3.449258e-22
-2.724714e-22
-1.856804e-22
-1.050977e-22
-4.544949e-23
-1.593477e-23
-4.171500e-24
-1.373097e-25
-1.244373e-26
-3.243041e-26
-3.181629e-26
-3.008990e-26
-1.827912e-26
-1.053240e-26
-5.875108e-27
-3.105945e-27
-1.614870e-27
-6.200179e-28
-8.459019e-29
1.397819e-30
-4.653037e-30
-2.404874e-30
-5.734529e-31
-2.036037e-31
-1.377116e-31
-6.249640e-32
9.999999e-01
1.000000e+00
1.000000e+00
1.000002e+00
1.000012e+00
9.999978e-01
9.972262e-01
9.710525e-01
8.970023e-01
7.616198e-01
5.236861e-01
3.741155e-01
1.874662e-01
8.575288e-02
3.193779e-02
8.878254e-03
1.226594e-03
3.762687e-05
2.454036e-05
2.111193e-05
1.534072e-05
6.880825e-06
2.046238e-06
8.643145e-07
4.805040e-07
2.619566e-07
9.914192e-08
1.988186e-08
3.876812e-09
2.748159e-09
6.315621e-10
3.641756e-10
1.767694e-10
5.142102e-11
2.258787e-11
1.443698e-11
6.721204e-12
5.116656e-12
2.751570e-12
7.023534e-13
-4.101278e-14
-4.067199e-14
-2.980321e-14
-1.213922e-14
-1.281194e-15
1.267535e-16
5.594872e-17
2.909114e-17
1.289847e-17
5.804887e-18
1.572238e-18
3.202522e-20
-1.753231e-20
-8.854822e-21
-2.688785e-21
-3.156508e-22
-1.213317e-22
-7.571085e-23
-4.123045e-23
-3.044127e-23
-1.695246e-23
-8.633498e-24
-3.337677e-24
-8.742810e-25
-5.366794e-26
-1.508094e-26
-8.485772e-27
-6.531763e-27
-4.775144e-27
-8.800808e-28
-1.535805e-27
-1.360883e-27
-8.928199e-28
-4.269189e-28
-1.861909e-28
-8.015786e-29
-3.501902e-29
-1.522461e-29
-6.657784e-30
-2.734421e-30
1.000000e+00
1.000000e+00
1.000000e+00
1.000000e+00
1.000006e+00
1.000008e+00
9.999378e-01
9.942415e-01
9.639226e-01
8.861952e-01
7.589460e-01
5.119414e-01
3.893357e-01
1.920826e-01
9.235993e-02
3.717789e-02
1.166947e-02
2.343475e-03
6.253759e-05
1.166317e-05
1.626515e-05
1.320958e-05
6.532378e-06
1.655289e-06
4.479367e-07
2.600005e-07
2.155656e-07
1.339958e-07
6.489566e-08
3.075388e-08
1.436988e-08
6.879067e-09
3.169023e-09
1.510272e-09
7.270976e-10
2.396337e-10
3.204897e-11
3.865836e-12
3.713207e-12
2.575077e-12
1.418876e-12
3.342470e-13
-2.855450e-14
-2.400846e-14
-1.578241e-14
-7.597960e-15
-3.346336e-15
-9.083640e-16
2.936515e-18
6.208054e-18
5.215003e-18
2.981990e-18
1.175244e-18
2.200474e-19
4.809692e-21
-3.592259e-21
-2.650220e-21
-1.147036e-21
-2.123837e-22
-3.014356e-23
-1.430723e-23
-8.734917e-24
-3.132167e-24
-2.236221e-24
-1.274143e-24
-6.554948e-25
-3.756643e-25
-2.091012e-25
-1.209034e-25
-5.873263e-26
-7.297555e-27
-3.339905e-28
-8.512750e-28
-4.139981e-28
-1.618292e-28
-9.569254e-30
-2.045141e-29
-7.504310e-30
-4.750452e-30
-4.220133e-30
1.000000e+00
1.000000e+00
1.000000e+00
1.000000e+00
1.000001e+00
1.000006e+00
1.000006e+00
9.997566e-01
9.914763e-01
9.548826e-01
8.818103e-01
7.454679e-01
5.159440e-01
3.938143e-01
1.986326e-01
9.889332e-02
4.197191e-02
1.453359e-02
3.627336e-03
3.478767e-04
2.369395e-05
1.547229e-05
1.294945e-05
9.276251e-06
3.579384e-06
6.763811e-07
1.818845e-07
1.003865e-07
6.010644e-08
2.662323e-08
1.452704e-08
6.091614e-09
2.302374e-09
1.518670e-09
7.005080e-10
5.855766e-10
3.306140e-10
8.768906e-11
5.692298e-12
2.424700e-12
1.747545e-12
1.240917e-12
6.591048e-13
2.675999e-13
8.499436e-14
3.235151e-15
-3.511726e-15
-2.968902e-15
-1.644684e-15
-7.180747e-16
-2.478933e-16
-2.952066e-17
3.230408e-18
1.345868e-18
7.221952e-19
3.234600e-19
4.937642e-20
-1.912898e-21
-1.536928e-21
-8.366327e-22
-3.766564e-22
-1.782668e-22
-2.751043e-23
-1.656501e-24
-7.702177e-25
-6.640094e-25
-2.332062e-25
-1.039400e-25
-1.027758e-25
-6.227428e-26
-6.971277e-26
-4.064996e-26
-1.956967e-26
-9.587253e-27
-4.462941e-27
-2.068241e-27
-9.606339e-28
-3.686051e-28
-5.543965e-29
-3.618768e-30
1.000000e+00
1.000000e+00
1.000000e+00
1.000000e+00
1.000000e+00
1.000002e+00
1.000006e+00
9.999054e-01
9.998673e-01
9.863784e-01
9.508924e-01
8.715879e-01
7.384830e-01
5.161713e-01
3.972134e-01
2.051909e-01
1.051908e-01
4.638173e-02
1.744978e-02
5.014214e-03
5.925479e-04
2.045058e-06
7.306310e-06
8.847759e-06
7.741230e-06
4.929263e-06
2.415420e-06
1.147795e-06
5.461452e-07
2.668405e-07
1.316108e-07
6.590341e-08
3.215316e-08
1.302426e-08
2.797638e-09
5.379442e-10
4.677860e-10
3.538649e-10
1.669785e-10
3.807190e-11
2.393865e-12
1.051687e-12
6.449629e-13
2.078753e-13
1.801167e-13
1.071074e-13
4.722045e-14
1.928606e-14
4.860176e-15
-6.298510e-16
-5.339340e-16
-3.231118e-16
-1.597001e-16
-4.707664e-17
4.112914e-20
3.228355e-19
3.167901e-19
1.751948e-19
7.612086e-20
1.749500e-20
-2.841875e-22
-2.392719e-22
-1.690711e-22
-7.683126e-23
-3.657054e-23
-1.764151e-23
-8.404881e-24
-4.418816e-24
-1.886534e-24
-3.537971e-25
-5.690568e-26
-3.398295e-26
-1.852239e-26
-7.328859e-27
-3.664395e-27
-2.075309e-27
-9.461939e-28
-7.336303e-28
-4.460309e-28
-2.038210e-28
1.000000e+00
1.000000e+00
1.000000e+00
1.000000e+00
1.000000e+00
1.000000e+00
1.000004e+00
9.999617e-01
1.000027e+00
9.976899e-01
9.838591e-01
9.447054e-01
8.634939e-01
7.326591e-01
5.157855e-01
4.002261e-01
2.115866e-01
1.117050e-01
5.055369e-02
2.039573e-02
7.034205e-03
1.720592e-03
2.185965e-04
8.258229e-06
3.685855e-06
1.050887e-06
2.013337e-06
7.924237e-07
3.479858e-07
1.985655e-07
1.289190e-07
4.427209e-08
2.965598e-08
2.585345e-08
1.617150e-08
5.538202e-09
5.180991e-10
2.925168e-10
2.643167e-10
1.786403e-10
8.996697e-11
4.141594e-11
1.519196e-11
2.360473e-12
1.951259e-13
7.149250e-14
4.739837e-14
1.770993e-14
1.427869e-14
7.974849e-15
3.024819e-15
5.627113e-16
-1.439044e-16
-1.281510e-16
-7.288820e-17
-3.349356e-17
-8.983250e-18
5.472290e-20
1.016441e-19
8.108198e-20
4.232009e-20
1.790407e-20
7.529093e-21
3.163338e-21
1.327763e-21
5.727584e-22
2.139705e-22
2.387924e-23
-2.084853e-24
-2.166262e-24
-1.251524e-24
-6.243326e-25
-2.983866e-25
-1.417635e-25
-6.739176e-26
-2.685640e-26
-3.405494e-27
-4.784924e-28
-4.319174e-28
-3.017384e-28
1.000000e+00
1.000000e+00
1.000000e+00
1.000000e+00
1.000000e+00
1.000000e+00
1.000002e+00
9.999847e-01
9.999949e-01
9.999411e-01
9.962432e-01
9.802573e-01
9.387055e-01
8.559288e-01
7.276764e-01
5.150101e-01
4.022886e-01
2.167133e-01
1.189680e-01
5.368724e-02
2.138699e-02
7.338407e-03
2.227366e-03
7.022861e-04
3.227293e-04
1.426754e-04
6.459588e-05
2.876699e-05
1.267219e-05
5.640406e-06
2.628562e-06
9.207690e-07
1.284168e-07
2.271384e-08
2.093740e-08
1.621301e-08
8.945235e-09
2.421258e-09
3.172986e-10
1.040650e-10
8.991054e-11
4.157194e-11
3.151942e-11
1.951342e-11
8.969561e-12
4.019836e-12
1.380892e-12
1.207357e-13
6.511558e-15
5.251985e-15
4.139743e-15
2.685437e-15
1.370596e-15
4.861435e-16
2.382211e-17
-3.220586e-17
-2.700535e-17
-1.521668e-17
-6.534764e-18
-2.797479e-18
-1.194366e-18
-5.090278e-19
-2.173680e-19
-9.605348e-20
-3.371141e-20
-3.558691e-21
2.690634e-22
2.312048e-22
1.104567e-22
4.917675e-23
2.195815e-23
9.744762e-24
3.798183e-24
7.407905e-25
-4.947106e-26
-5.303740e-26
-3.752845e-26
-1.351359e-26
-1.787411e-27
-1.837929e-28
1.000000e+00
1.000000e+00
1.000000e+00
1.000000e+00
1.000000e+00
1.000000e+00
1.000001e+00
9.999937e-01
9.999927e-01
9.999939e-01
9.996809e-01
9.947985e-01
9.764348e-01
9.334885e-01
8.476238e-01
7.250094e-01
5.158366e-01
4.044447e-01
2.191972e-01
1.311339e-01
6.150057e-02
2.462484e-02
8.071477e-03
1.879447e-03
3.549531e-04
1.375870e-04
5.495415e-05
2.324127e-05
1.177530e-05
5.506512e-06
2.699601e-06
2.200952e-06
1.216215e-06
3.106870e-07
2.780577e-08
1.406706e-08
1.232647e-08
9.285261e-09
4.840735e-09
2.306029e-09
9.004376e-10
1.924146e-10
3.437535e-11
1.713283e-11
7.744805e-12
3.827777e-12
3.095963e-12
1.898187e-12
7.350926e-13
1.599402e-13
1.834652e-15
1.362881e-15
9.168566e-16
6.768082e-16
4.693124e-16
2.165418e-16
7.516046e-17
2.092177e-17
3.713949e-18
-7.753936e-19
-1.147870e-18
-5.142599e-19
-1.807356e-19
-9.775107e-20
-7.058823e-20
-4.268339e-20
-1.879187e-20
-7.855174e-21
-3.412356e-21
-1.565919e-21
-5.542783e-22
-4.989117e-23
8.827037e-24
4.186405e-24
2.196635e-24
6.064211e-25
-3.782488e-26
-2.762819e-26
-1.794354e-26
-8.193431e-27
1.000000e+00
1.000000e+00
1.000000e+00
1.000000e+00
1.000000e+00
1.000000e+00
1.000000e+00
9.999985e-01
9.999945e-01
9.999953e-01
9.999907e-01
9.992609e-01
9.929755e-01
9.724006e-01
9.302051e-01
8.319051e-01
7.228631e-01
5.194890e-01
4.070904e-01
2.222609e-01
1.368019e-01
6.857356e-02
3.014142e-02
1.135591e-02
3.495462e-03
9.542341e-04
4.672243e-04
2.296773e-04
1.137001e-04
3.935632e-05
7.652947e-06
2.290634e-06
1.855692e-06
1.362688e-06
6.090871e-07
1.306692e-07
1.531569e-08
7.481122e-09
4.552659e-09
2.328004e-09
1.793125e-09
1.150847e-09
5.710346e-10
2.609969e-10
9.821407e-11
1.761432e-11
2.086128e-12
1.463109e-12
1.233379e-12
8.851545e-13
4.414895e-13
1.593312e-13
2.203565e-14
-1.644277e-15
-2.236972e-17
1.096876e-16
6.542917e-17
7.486869e-18
-1.225678e-17
-1.054362e-17
-6.177870e-18
-3.910301e-18
-1.809032e-18
-5.390407e-19
-6.123260e-20
-3.534589e-20
-1.297681e-20
-7.908834e-21
-2.421407e-21
-1.548604e-21
-1.266429e-21
-7.959852e-22
-3.400988e-22
-6.812009e-23
1.622555e-24
1.678895e-24
1.029136e-24
4.515427e-25
1.694836e-25
5.131460e-26
1.000000e+00
1.000000e+00
1.000000e+00
1.000000e+00
1.000000e+00
1.000000e+00
1.000000e+00
1.000000e+00
9.999974e-01
9.999960e-01
9.999974e-01
9.999368e-01
9.989850e-01
9.901993e-01
9.711762e-01
9.210148e-01
8.231768e-01
7.195731e-01
5.218314e-01
4.078268e-01
2.280890e-01
1.365888e-01
6.947868e-02
3.124016e-02
1.173077e-02
3.380154e-03
5.644455e-04
2.369309e-04
1.236959e-04
1.000863e-04
5.483369e-05
1.482812e-05
2.153669e-06
1.382551e-06
1.051569e-06
6.895636e-07
3.460844e-07
1.586167e-07
5.860112e-08
9.887324e-09
9.973761e-10
5.033877e-10
3.797861e-10
2.428093e-10
2.012447e-10
1.267632e-10
6.098241e-11
1.993205e-11
1.240760e-12
5.053927e-13
3.672533e-13
3.302767e-13
2.023079e-13
9.044624e-14
3.851399e-14
1.677278e-14
7.379949e-15
3.215971e-15
1.371431e-15
6.016708e-16
1.808841e-16
3.419089e-18
-3.283237e-18
-2.446478e-18
-1.287956e-18
-5.737380e-19
-2.500692e-19
-1.117695e-19
-3.570203e-20
-4.715280e-21
-1.076741e-21
-7.870482e-22
-6.129250e-22
-3.861178e-22
-1.995918e-22
-8.611632e-23
-3.050526e-23
-4.351209e-24
1.933136e-25
1.394492e-25
1.000000e+00
1.000000e+00
1.000000e+00
1.000000e+00
1.000000e+00
1.000000e+00
1.000000e+00
1.000000e+00
9.999995e-01
9.999973e-01
9.999978e-01
9.999729e-01
9.999695e-01
9.975052e-01
9.896871e-01
9.671955e-01
9.135117e-01
8.160545e-01
7.166373e-01
5.214932e-01
4.107556e-01
2.331794e-01
1.463231e-01
7.660837e-02
3.642564e-02
1.520854e-02
5.255161e-03
1.348231e-03
2.989748e-04
1.052748e-04
8.424159e-05
6.201184e-05
2.829811e-05
7.280191e-06
1.149412e-06
5.179248e-07
3.071703e-07
1.473549e-07
1.209280e-07
7.697941e-08
3.696104e-08
1.791356e-08
6.780458e-09
1.082193e-09
8.189528e-11
1.205801e-10
7.745107e-11
5.467862e-11
3.328039e-11
1.260090e-11
2.195437e-12
2.084931e-13
1.974035e-13
6.551498e-14
2.769144e-14
1.343720e-14
6.116794e-15
8.791210e-16
1.175984e-15
6.232014e-16
4.743337e-16
2.696200e-16
1.162696e-16
4.876881e-17
2.123930e-17
7.462339e-18
6.138401e-19
-1.234254e-19
-9.475898e-20
-5.401677e-20
-2.182496e-20
-5.367005e-21
-6.051384e-22
-3.752906e-22
-1.285437e-22
-7.927988e-23
-6.137811e-23
-3.761291e-23
-1.840747e-23
-6.875890e-24
1.000000e+00
1.000000e+00
1.000000e+00
1.000000e+00
1.000000e+00
1.000000e+00
1.000000e+00
1.000000e+00
1.000000e+00
9.999986e-01
9.999989e-01
9.999871e-01
9.999879e-01
9.996299e-01
9.969630e-01
9.879819e-01
9.629976e-01
9.062386e-01
8.112445e-01
7.119554e-01
5.210520e-01
4.143509e-01
2.385472e-01
1.469023e-01
7.671489e-02
3.693690e-02
1.603648e-02
5.938064e-03
1.816122e-03
4.382454e-04
9.306021e-05
6.300644e-05
4.710065e-05
3.094285e-05
1.467696e-05
5.633570e-06
2.383579e-06
7.465701e-07
1.284595e-07
5.979224e-08
3.334545e-08
1.803809e-08
1.410415e-08
8.745508e-09
4.390917e-09
1.436070e-09
1.176900e-10
3.235065e-11
3.190527e-11
2.578853e-11
1.598908e-11
7.610060e-12
3.432748e-12
1.531742e-12
6.818485e-13
3.077067e-13
1.389436e-13
6.721522e-14
2.157721e-14
2.093298e-15
4.593913e-16
1.222347e-17
1.017407e-16
4.014561e-17
1.685267e-17
1.520724e-17
1.007437e-17
4.148179e-18
6.823763e-19
-4.016911e-20
-4.442805e-20
-2.855284e-20
-1.424993e-20
-6.395456e-21
-3.003891e-21
-6.931355e-22
-6.214594e-23
-3.114856e-23
-1.802072e-23
-5.618378e-24
1.000000e+00
1.000000e+00
1.000000e+00
1.000000e+00
1.000000e+00
1.000000e+00
1.000000e+00
1.000000e+00
1.000000e+00
9.999994e-01
9.999994e-01
9.999941e-01
9.999919e-01
9.999889e-01
9.993543e-01
9.962207e-01
9.860051e-01
9.586244e-01
8.993092e-01
8.088126e-01
7.066977e-01
5.196556e-01
4.154453e-01
2.429381e-01
1.590958e-01
8.337634e-02
4.027603e-02
1.766314e-02
6.899491e-03
2.331105e-03
6.576481e-04
1.643377e-04
5.947112e-05
3.755934e-05
2.346926e-05
1.083323e-05
4.075063e-06
2.421735e-06
1.415360e-06
7.217067e-07
2.937072e-07
6.896384e-08
1.544359e-08
8.672647e-09
4.582607e-09
3.614878e-09
2.234050e-09
8.590097e-10
1.430447e-10
2.807195e-11
1.413054e-11
4.685753e-12
2.600515e-12
1.178728e-12
6.208493e-13
2.975498e-13
1.200492e-13
6.745346e-14
5.325442e-14
3.193813e-14
1.454060e-14
6.578022e-15
2.948040e-15
1.091200e-15
1.574135e-16
1.655243e-17
1.015925e-17
8.217775e-18
5.317566e-18
2.762339e-18
1.204044e-18
5.247209e-19
1.529576e-19
-1.438266e-21
-3.028255e-21
-2.795635e-21
-1.518414e-21
-6.746246e-22
-3.130381e-22
-1.254514e-22
1.000000e+00
1.000000e+00
1.000000e+00
1.000000e+00
1.000000e+00
1.000000e+00
1.000000e+00
1.000000e+00
1.000000e+00
9.999998e-01
9.999998e-01
9.999982e-01
9.999940e-01
9.999953e-01
9.999356e-01
9.991179e-01
9.953381e-01
9.838017e-01
9.547146e-01
8.885150e-01
8.115297e-01
7.049208e-01
5.184753e-01
4.165045e-01
2.444488e-01
1.648886e-01
8.850043e-02
4.341646e-02
1.932853e-02
7.738651e-03
2.727575e-03
8.206267e-04
2.218459e-04
7.502657e-05
4.275535e-05
2.836560e-05
1.352145e-05
3.688016e-06
1.277116e-06
7.258070e-07
5.722899e-07
3.690095e-07
1.935520e-07
6.788679e-08
1.063545e-08
3.751334e-09
2.115918e-09
1.725972e-09
1.102164e-09
5.400138e-10
2.449576e-10
1.146009e-10
5.255553e-11
2.418998e-11
1.071468e-11
5.006774e-12
1.680717e-12
1.985789e-13
2.360864e-14
2.517613e-14
1.419598e-14
5.238918e-15
2.730017e-15
2.199256e-15
1.451110e-15
5.836061e-16
1.043952e-16
8.958805e-18
5.373366e-18
1.991941e-18
6.921074e-19
5.135494e-19
4.075241e-19
2.320278e-19
9.734948e-20
4.024062e-20
1.653301e-20
6.752657e-21
2.705182e-21
1.096685e-21
1.000000e+00
1.000000e+00
1.000000e+00
1.000000e+00
1.000000e+00
1.000000e+00
1.000000e+00
1.000000e+00
1.000000e+00
9.999999e-01
9.999998e-01
9.999998e-01
9.999969e-01
9.999958e-01
9.999956e-01
9.998339e-01
9.989980e-01
9.937705e-01
9.846144e-01
9.403008e-01
8.937587e-01
7.989732e-01
7.032562e-01
5.214302e-01
4.170670e-01
2.477889e-01
1.704629e-01
9.365206e-02
4.706351e-02
2.143171e-02
8.817399e-03
3.218129e-03
1.010623e-03
2.698175e-04
7.363260e-05
3.928411e-05
3.012779e-05
2.001343e-05
9.398879e-06
3.084361e-06
5.800381e-07
3.424715e-07
1.931773e-07
1.566699e-07
9.938446e-08
4.187574e-08
9.419115e-09
1.811750e-09
8.332904e-10
4.445460e-10
1.682676e-10
1.069760e-10
5.250473e-11
2.504572e-11
8.162626e-12
4.856191e-12
4.018119e-12
2.449087e-12
1.136798e-12
5.109139e-13
2.378921e-13
9.084464e-14
1.465184e-14
1.296497e-15
1.409391e-15
1.133933e-15
7.198297e-16
3.523390e-16
1.631980e-16
7.865812e-17
2.530749e-17
2.026257e-18
3.376708e-19
1.443366e-19
9.682741e-20
-5.371174e-21
1.022382e-20
1.865678e-21
2.519331e-21
1.092059e-21
1.000000e+00
1.000000e+00
1.000000e+00
1.000000e+00
1.000000e+00
1.000000e+00
1.000000e+00
1.000000e+00
1.000000e+00
1.000000e+00
9.999999e-01
9.999999e-01
9.999992e-01
9.999968e-01
9.999976e-01
9.999287e-01
9.999477e-01
9.969701e-01
9.968527e-01
9.755580e-01
9.436298e-01
8.871648e-01
7.906773e-01
7.010177e-01
5.218781e-01
4.173538e-01
2.502740e-01
1.743570e-01
9.761600e-02
5.030826e-02
2.347568e-02
9.947871e-03
3.804144e-03
1.284417e-03
3.677948e-04
8.288471e-05
3.010286e-05
2.028323e-05
1.484255e-05
9.919470e-06
5.128122e-06
1.895170e-06
5.381883e-07
1.428925e-07
9.503192e-08
7.592823e-08
4.923206e-08
2.504740e-08
1.186652e-08
5.747636e-09
2.744689e-09
1.263050e-09
5.894338e-10
2.931610e-10
1.036748e-10
1.549172e-11
2.366870e-12
1.468023e-12
1.096698e-12
3.411484e-13
2.172396e-13
1.828351e-13
1.204029e-13
4.944079e-14
9.624289e-15
9.014550e-16
2.803671e-16
2.695289e-16
1.093821e-16
7.882675e-17
6.371484e-17
3.794106e-17
1.685289e-17
7.452154e-18
3.294496e-18
1.464004e-18
6.439496e-19
2.873972e-19
1.239196e-19
5.692084e-20
1.000000e+00
1.000000e+00
1.000000e+00
1.000000e+00
1.000000e+00
1.000000e+00
1.000000e+00
1.000000e+00
1.000000e+00
1.000000e+00
1.000000e+00
9.999999e-01
9.999999e-01
9.999984e-01
9.999987e-01
9.999677e-01
9.999993e-01
9.986388e-01
9.987487e-01
9.924493e-01
9.749309e-01
9.412368e-01
8.823212e-01
7.836367e-01
6.994064e-01
5.244031e-01
4.205721e-01
2.545650e-01
1.790010e-01
1.014310e-01
5.354531e-02
2.547861e-02
1.099306e-02
4.327195e-03
1.559401e-03
5.100524e-04
1.444001e-04
4.474428e-05
1.910361e-05
1.191662e-05
7.919115e-06
4.300758e-06
2.369968e-06
1.194117e-06
4.119194e-07
7.843322e-08
4.440722e-08
2.451193e-08
1.042628e-08
4.951990e-09
2.745230e-09
1.292116e-09
5.415047e-10
2.875019e-10
2.335761e-10
1.436826e-10
6.893938e-11
3.114875e-11
1.464322e-11
5.777293e-12
9.923276e-13
1.238173e-13
1.113566e-13
9.137442e-14
5.929747e-14
2.896793e-14
1.338651e-14
6.310469e-15
2.142235e-15
2.082425e-16
2.034567e-17
2.845591e-17
1.159500e-17
4.220944e-18
2.066317e-18
1.292174e-18
1.739694e-19
9.989851e-20
8.780543e-20
5.324802e-20
1.000000e+00
1.000000e+00
1.000000e+00
1.000000e+00
1.000000e+00
1.000000e+00
1.000000e+00
1.000000e+00
1.000000e+00
1.000000e+00
1.000000e+00
1.000000e+00
1.000000e+00
9.999993e-01
9.999995e-01
9.999852e-01
9.999925e-01
9.993860e-01
9.993756e-01
9.979620e-01
9.905476e-01
9.730895e-01
9.372842e-01
8.796994e-01
7.714957e-01
6.917879e-01
5.232440e-01
4.221613e-01
2.585509e-01
1.840003e-01
1.048421e-01
5.701176e-02
2.782937e-02
1.219628e-02
4.821778e-03
1.736457e-03
5.711656e-04
1.797823e-04
5.938177e-05
2.327984e-05
1.238680e-05
7.733606e-06
3.710180e-06
1.716454e-06
1.140030e-06
7.121125e-07
3.460857e-07
1.721498e-07
8.571339e-08
4.373302e-08
2.207341e-08
1.123967e-08
4.447739e-09
9.883392e-10
2.135818e-10
1.416652e-10
5.060636e-11
2.474053e-11
1.336362e-11
1.132341e-11
7.444094e-12
3.066060e-12
5.927601e-13
5.033214e-14
5.859044e-14
2.668286e-14
9.047542e-15
6.051917e-15
5.136168e-15
3.148727e-15
1.483311e-15
6.721309e-16
3.110246e-16
1.395294e-16
6.274897e-17
2.833392e-17
1.305149e-17
6.214714e-18
1.964235e-18
2.948237e-19
1.000000e+00
1.000000e+00
1.000000e+00
1.000000e+00
1.000000e+00
1.000000e+00
1.000000e+00
1.000000e+00
1.000000e+00
1.000000e+00
1.000000e+00
1.000000e+00
1.000000e+00
9.999997e-01
9.999997e-01
9.999931e-01
9.999950e-01
9.997738e-01
9.995542e-01
9.994631e-01
9.969932e-01
9.892813e-01
9.704786e-01
9.338134e-01
8.782878e-01
7.661876e-01
6.869093e-01
5.219616e-01
4.232721e-01
2.619507e-01
1.899424e-01
1.067753e-01
5.991784e-02
3.035115e-02
1.378507e-02
5.605510e-03
2.041457e-03
6.742442e-04
2.114634e-04
7.007598e-05
2.639461e-05
1.325074e-05
9.705581e-06
4.526908e-06
1.542044e-06
6.828419e-07
3.569094e-07
1.686055e-07
8.681094e-08
4.375629e-08
2.233669e-08
1.128744e-08
8.933193e-09
5.682183e-09
2.844550e-09
1.333242e-09
6.787822e-10
3.013890e-10
7.005953e-11
1.181596e-11
7.051408e-12
5.885719e-12
3.734914e-12
1.841074e-12
8.246759e-13
4.055786e-13
1.461973e-13
1.946091e-14
4.715276e-15
2.868468e-15
1.466885e-15
3.557305e-16
1.915673e-16
1.094357e-16
5.924282e-17
1.575592e-17
1.309677e-17
6.654561e-18
5.218422e-18
2.635948e-18
1.000000e+00
1.000000e+00