# vtk DataFile Version 3.0
MUSCL
ASCII
DATASET STRUCTURED_POINTS
DIMENSIONS 80 80 1
ORIGIN 0 0 0
SPACING 0.0125 0.0125 1
POINT_DATA 6400
SCALARS Temperature double 1
LOOKUP_TABLE default
0.000000e+00
-6.740012e-01
-1.939403e-01
-2.456253e-02
-3.499324e-04
1.551471e-05
1.926811e-06
-1.239103e-07
-1.811945e-07
-8.943637e-08
-3.757297e-08
-1.602411e-08
-6.945179e-09
-3.077603e-09
-1.100025e-09
-2.655686e-10
5.603440e-13
1.959943e-12
1.939238e-12
8.553923e-13
3.565799e-13
1.183674e-13
3.537233e-14
1.156816e-14
4.686306e-15
2.206368e-15
1.077032e-15
5.112025e-16
2.297549e-16
8.973617e-17
2.734105e-17
2.320007e-18
-1.205093e-19
-5.025874e-20
-1.990716e-20
-5.817083e-21
-8.024787e-22
2.075315e-24
6.775451e-23
6.158573e-23
2.802795e-23
1.072982e-23
1.637354e-24
-6.404325e-26
-6.812313e-26
-4.918970e-26
-3.360503e-26
-2.371556e-26
-1.760961e-26
-3.450524e-27
1.318369e-28
1.300912e-28
1.075838e-28
5.495072e-29
2.115221e-29
9.926965e-30
5.299965e-30
2.703563e-30
1.267476e-30
5.510627e-31
2.240922e-31
8.578971e-32
3.191367e-32
3.700762e-33
-1.534226e-34
-2.546292e-35
-1.288238e-35
-4.228138e-36
-6.355870e-38
6.270483e-36
7.779182e-36
3.899220e-36
8.058080e-37
3.889171e-37
2.936431e-37
1.488477e-37
6.444738e-38
2.464674e-38
8.767182e-39
2.777235e-39
1.325999e+00
6.740012e-01
1.939403e-01
2.456253e-02
3.499324e-04
-1.551471e-05
-1.926811e-06
1.239103e-07
1.811945e-07
8.943637e-08
3.757297e-08
1.602411e-08
6.945179e-09
3.077603e-09
1.100025e-09
2.655686e-10
-5.603440e-13
-1.959943e-12
-1.939238e-12
-8.553923e-13
-3.565799e-13
-1.183674e-13
-3.537233e-14
-1.156816e-14
-4.686306e-15
-2.206368e-15
-1.077032e-15
-5.112025e-16
-2.297549e-16
-8.973617e-17
-2.734105e-17
-2.320007e-18
1.205093e-19
5.025874e-20
1.990716e-20
5.817083e-21
8.024787e-22
-2.075315e-24
-6.775451e-23
-6.158573e-23
-2.802795e-23
-1.072982e-23
-1.637354e-24
6.404325e-26
6.812313e-26
4.918970e-26
3.360503e-26
2.371556e-26
1.760961e-26
3.450524e-27
-1.318369e-28
-1.300912e-28
-1.075838e-28
-5.495072e-29
-2.115221e-29
-9.926965e-30
-5.299965e-30
-2.703563e-30
-1.267476e-30
-5.510627e-31
-2.240922e-31
-8.578971e-32
-3.191367e-32
-3.700762e-33
1.534226e-34
2.546292e-35
1.288238e-35
4.228138e-36
6.355870e-38
-6.270483e-36
-7.779182e-36
-3.899220e-36
-8.058080e-37
-3.889171e-37
-2.936431e-37
-1.488477e-37
-6.444738e-38
-2.464674e-38
-8.767182e-39
-2.777235e-39
1.041934e+00
9.580655e-01
5.984950e-01
2.397876e-01
5.880717e-02
3.828822e-03
-9.620498e-05
-5.422638e-05
-2.739665e-05
-9.992306e-06
-3.875807e-06
-1.646967e-06
-6.816413e-07
-1.515840e-07
3.955337e-09
1.165796e-09
6.843413e-10
2.088071e-10
2.984469e-12
-1.435307e-12
-4.926826e-13
-1.201962e-13
-1.875295e-14
1.439801e-15
-1.793835e-15
-7.684691e-16
1.993892e-15
1.898006e-15
-1.569534e-16
-1.497359e-16
-8.794398e-17
-4.651232e-17
-1.703629e-17
-4.686988e-18
-7.690087e-19
-1.026636e-20
8.100563e-21
3.451786e-21
9.281099e-22
2.581317e-22
5.783446e-23
-9.978046e-24
-7.438592e-24
-9.092812e-24
-1.350761e-23
-1.282559e-23
-7.907730e-24
-3.920275e-24
-4.913651e-25
3.862791e-27
2.833728e-26
2.098993e-26
1.079314e-26
5.145586e-27
2.349866e-27
1.058259e-27
4.798255e-28
2.193980e-28
9.920360e-29
4.314822e-29
1.847937e-29
5.187303e-30
6.709421e-33
-3.415792e-32
-1.787629e-32
-6.019814e-33
-8.583872e-34
-1.982168e-35
6.070040e-35
6.729756e-35
2.739385e-35
4.741354e-36
4.363535e-37
8.735469e-38
1.396817e-36
1.453479e-36
7.970601e-37
3.391200e-37
1.317099e-37
5.385218e-38
9.998919e-01
1.000108e+00
8.872287e-01
5.936568e-01
2.706686e-01
8.403040e-02
1.605337e-02
1.162532e-03
4.544790e-04
2.065072e-04
7.636753e-05
1.023178e-05
-8.900694e-07
-7.198165e-07
-4.135907e-07
-1.532180e-07
-7.272873e-09
1.169401e-10
4.744018e-10
1.088095e-10
-3.569649e-12
-1.569418e-12
-9.296012e-13
-4.596267e-13
-1.972165e-13
-7.111752e-14
-1.570378e-14
-5.002331e-16
2.052891e-15
1.091995e-15
-6.840215e-17
-5.971264e-17
-3.439978e-17
-1.683107e-17
-7.438218e-18
-2.844220e-18
-8.986006e-19
-2.750146e-19
-8.394045e-20
-2.675804e-20
-3.238441e-21
-5.706278e-23
1.191039e-22
5.919541e-23
-1.494586e-24
-1.148334e-23
1.810212e-24
-3.061970e-24
-4.835883e-24
-3.479971e-24
-1.874000e-24
-9.980574e-25
-5.099827e-25
-2.542653e-25
-1.232895e-25
-5.852009e-26
-2.741363e-26
-1.252173e-26
-5.428086e-27
-1.605963e-27
1.521922e-29
1.069689e-29
9.079214e-30
3.703284e-30
1.300486e-30
2.015550e-31
-1.710839e-33
-3.041559e-33
-1.309871e-33
-3.011920e-34
-7.976202e-35
-3.499468e-35
-1.879362e-35
-7.377401e-36
-1.596095e-36
-3.771516e-37
8.022668e-38
1.243152e-37
5.655323e-38
5.680963e-38
9.999121e-01
1.000088e+00
9.864505e-01
8.522556e-01
5.805708e-01
2.962084e-01
9.862205e-02
2.168818e-02
5.586908e-04
2.076719e-04
1.458552e-04
9.479274e-05
4.194972e-05
7.851177e-06
-2.941782e-07
-3.369330e-07
-2.358305e-07
-7.141141e-08
-8.093208e-10
4.905298e-10
4.390483e-10
2.046784e-10
8.758013e-11
3.725134e-11
1.357008e-11
2.204344e-12
2.604785e-14
-2.311074e-15
2.313250e-15
3.235308e-15
2.520275e-15
1.183905e-15
5.499109e-16
2.315287e-16
8.787172e-17
3.089955e-17
9.851169e-18
2.252587e-18
1.340105e-19
-2.355285e-20
-1.938037e-20
-1.482129e-20
-9.104798e-21
-5.111966e-21
-2.790690e-21
-1.550233e-21
-5.600413e-22
-1.012938e-23
-2.212852e-24
-2.235578e-24
-5.582012e-25
-8.205738e-25
9.200737e-26
-1.494372e-25
-9.133872e-26
8.602681e-26
2.253340e-26
-5.500313e-27
-7.328766e-27
-5.148188e-27
-2.840555e-27
-1.198745e-27
-4.853927e-28
-1.004952e-28
1.629761e-30
8.598323e-31
5.527511e-31
2.573468e-31
1.074679e-31
3.894521e-32
1.230638e-32
3.672800e-33
1.112772e-33
4.361327e-34
2.447069e-34
1.539805e-34
8.515495e-35
3.590743e-35
4.296712e-37
-1.893188e-37
9.999649e-01
1.000035e+00
9.997203e-01
9.654555e-01
8.298740e-01
5.648538e-01
3.365383e-01
1.265878e-01
3.470678e-02
2.694457e-03
3.777183e-05
7.041473e-05
6.532946e-05
4.645006e-05
2.026538e-05
3.919498e-06
-2.792155e-07
-2.051415e-07
-1.300361e-07
-5.791340e-08
-2.495450e-08
-1.104767e-08
-3.523686e-09
-1.193060e-11
2.804985e-11
1.621278e-11
4.934254e-12
1.827692e-13
-1.375106e-14
-1.460877e-14
-7.141605e-15
-3.071766e-15
-1.224194e-15
-5.608761e-16
-1.335704e-16
3.258502e-17
1.757103e-17
8.237503e-18
3.382018e-18
1.061096e-18
2.491563e-19
3.676431e-20
1.138335e-21
5.311833e-21
5.232410e-21
4.640532e-22
-5.184409e-22
-7.514469e-22
-5.083414e-22
-2.038460e-22
-1.067805e-22
-5.790741e-23
-2.949842e-23
-1.407516e-23
-6.649940e-24
-3.290640e-24
-1.325030e-24
-2.620250e-25
-1.125283e-26
-4.050839e-27
-1.833066e-27
-9.544397e-28
-6.389755e-28
-4.293944e-28
-2.078269e-28
-8.145622e-29
-3.162328e-29
-1.164239e-29
-3.887995e-30
-1.124895e-30
-2.655448e-31
-5.181297e-32
-8.134662e-33
-3.236164e-33
-5.167152e-33
-3.785127e-33
5.102747e-35
7.657630e-35
6.311667e-35
3.062266e-35
9.999888e-01
1.000011e+00
1.000007e+00
9.984542e-01
9.486245e-01
8.112692e-01
5.426930e-01
3.575997e-01
1.478980e-01
5.010460e-02
9.700438e-03
1.779501e-04
4.557624e-05
4.104427e-05
3.479120e-05
2.209320e-05
1.099729e-05
4.695408e-06
1.955534e-06
7.575794e-07
1.466958e-07
-1.026446e-08
-8.406030e-09
-5.466449e-09
-1.300939e-09
2.765074e-11
1.579002e-11
1.106771e-11
4.668280e-12
1.979268e-12
8.536469e-13
3.819699e-13
1.431654e-13
2.421287e-14
-5.922533e-19
-3.749566e-16
-2.388512e-16
-1.202824e-16
-5.825249e-17
-2.733697e-17
-1.257998e-17
-5.698426e-18
-2.621842e-18
-1.136181e-18
-1.908735e-19
3.067810e-21
2.047420e-21
4.635557e-22
-2.954398e-22
-3.447105e-22
-1.282813e-22
-5.359777e-23
-2.274871e-23
-1.122635e-23
-5.717309e-24
-2.630167e-24
-2.322859e-24
-1.511444e-24
-7.452699e-25
-3.366159e-25
-1.301494e-25
-2.328717e-26
-1.157650e-27
-3.534926e-28
-1.951466e-28
-8.385548e-29
1.451809e-29
5.211932e-30
1.658789e-30
1.407074e-31
-7.822327e-32
-2.910204e-33
1.695361e-32
7.126318e-33
-2.429634e-33
-6.915359e-33
-7.318518e-33
-4.807193e-33
-2.532934e-33
-1.366964e-33
9.999966e-01
1.000003e+00
1.000002e+00
1.000250e+00
9.920097e-01
9.349521e-01
7.949829e-01
5.167650e-01
3.729545e-01
1.555713e-01
5.842498e-02
1.624503e-02
2.186078e-03
7.176487e-05
2.624421e-05
2.181614e-05
1.062060e-05
4.659706e-06
1.865569e-06
1.150111e-06
8.140060e-07
3.484560e-07
5.059210e-08
-6.811988e-09
-4.862744e-09
-2.824530e-09
-1.270050e-09
-5.515116e-10
-2.378059e-10
-1.043640e-10
-3.939324e-11
-6.315388e-12
1.026417e-14
1.580661e-13
9.000534e-14
3.963342e-14
1.761712e-14
7.782921e-15
3.423681e-15
1.501350e-15
6.597689e-16
2.987910e-16
7.138741e-17
-3.859347e-19
-8.387107e-19
-6.150866e-19
-1.750162e-19
-1.013775e-21
-1.989941e-22
-3.910048e-23
-6.073104e-22
-1.166038e-21
-9.742100e-22
-4.419601e-22
-1.611687e-22
-2.177899e-23
9.365153e-25
-1.044184e-24
-4.992634e-25
-2.859138e-25
-2.225860e-25
-1.516682e-25
-7.102004e-26
-2.891026e-26
-1.153651e-26
-4.521298e-27
-1.596279e-27
-5.468925e-28
-1.852232e-28
-6.035027e-29
-1.756996e-29
-5.144609e-30
-1.557942e-30
-7.292634e-31
-1.909688e-31
-7.357217e-33
-5.817433e-33
-4.591894e-33
-2.016649e-33
-1.266606e-33
9.999992e-01
1.000001e+00
1.000001e+00
1.000028e+00
1.000039e+00
9.851868e-01
9.218302e-01
7.794560e-01
5.212852e-01
3.784393e-01
1.649833e-01
6.688971e-02
2.063186e-02
4.362325e-03
3.973249e-04
8.176065e-05
4.582723e-05
2.461924e-05
9.232632e-06
1.925408e-06
8.276675e-07
6.445550e-07
3.828637e-07
1.843337e-07
7.671086e-08
3.228188e-08
1.346158e-08
5.743816e-09
1.613993e-09
-7.598220e-11
-6.873029e-11
-4.498023e-11
-2.209087e-11
-9.603894e-12
-4.182880e-12
-1.812281e-12
-7.817079e-13
-3.342169e-13
-1.483597e-13
-4.536168e-14
3.597633e-16
3.341188e-16
2.562327e-16
1.194985e-16
2.601254e-17
-3.700833e-19
-4.365824e-19
-3.136976e-19
-1.379282e-19
-2.016382e-20
-5.455911e-22
-8.218673e-22
-8.438513e-22
-7.324204e-22
-4.787056e-22
-2.808603e-22
-1.269226e-22
-5.738728e-23
-2.270037e-23
-4.043650e-24
-2.513968e-25
-1.446698e-25
-3.393509e-26
-1.900775e-26
7.724443e-27
1.789307e-27
-3.941595e-28
1.481479e-28
-1.145106e-28
-5.800987e-29
-1.822283e-29
-5.570813e-30
2.118200e-30
-7.630757e-32
-5.477374e-31
-5.253060e-31
-3.431404e-31
-2.152291e-31
-1.258029e-31
-7.020165e-32
9.999999e-01
1.000000e+00
1.000000e+00
1.000008e+00
1.000024e+00
9.988981e-01
9.786638e-01
9.079567e-01
7.698376e-01
5.221597e-01
3.810298e-01
1.773022e-01
7.581459e-02
2.546692e-02
5.934574e-03
4.556577e-04
3.794557e-05
3.033081e-05
2.498664e-05
1.366996e-05
3.861259e-06
6.196769e-07
3.905031e-07
1.937847e-07
7.526737e-08
2.896043e-08
1.354670e-08
6.238931e-09
4.601536e-09
2.569784e-09
1.067963e-09
4.343325e-10
1.741141e-10
6.928822e-11
2.738615e-11
1.066522e-11
4.269198e-12
1.078961e-12
-1.377762e-13
-1.177580e-13
-7.222614e-14
-2.244192e-14
2.185931e-16
2.220640e-16
1.626907e-16
5.457921e-17
1.304952e-17
-6.861628e-19
-2.227180e-19
-1.463624e-19
-7.355496e-20
-3.271501e-20
-9.350351e-21
-5.728505e-22
-3.006675e-22
-2.429224e-22
-1.212368e-22
-5.120526e-23
-3.994106e-23
-2.688179e-23
-1.316857e-23
-5.612161e-24
-2.482254e-24
-1.050705e-24
-4.358140e-25
-1.806588e-25
-6.526501e-26
-2.298197e-26
-7.667465e-27
-2.545098e-27
-8.768750e-28
-3.269265e-28
-1.055580e-28
-1.485457e-29
-3.105056e-32
-2.460183e-31
-2.509709e-31
-6.911643e-32
-9.487093e-32
-5.941209e-32
1.000000e+00
1.000000e+00
1.000000e+00
1.000001e+00
1.000015e+00
1.000025e+00
9.972272e-01
9.709687e-01
8.969277e-01
7.615657e-01
5.236499e-01
3.741377e-01
1.875543e-01
8.585879e-02
3.200973e-02
8.911182e-03
1.224715e-03
4.680687e-05
2.555758e-05
2.149179e-05
1.569774e-05
6.876124e-06
1.862711e-06
5.389475e-07
3.739163e-07
2.170500e-07
8.305760e-08
1.510981e-08
3.896142e-09
2.076886e-09
7.534119e-10
3.378574e-10
1.538234e-10
6.810826e-11
1.940399e-11
1.012962e-11
4.165486e-12
3.212646e-12
1.779819e-12
3.869909e-13
-6.671883e-14
-5.671001e-14
-3.737263e-14
-9.980609e-15
-8.961374e-18
1.363133e-16
9.727942e-17
4.450269e-17
1.821649e-17
7.196858e-18
1.233660e-18
-1.540756e-20
-3.350188e-20
-2.155733e-20
-9.969883e-21
-4.382980e-21
-1.889032e-21
-5.068054e-22
-4.466171e-23
-2.612990e-23
-1.361383e-23
-7.471965e-24
-2.354631e-24
-7.390765e-25
-3.506719e-25
-1.247195e-25
-6.404002e-26
-1.386785e-26
-4.281009e-27
-1.999347e-27
-6.773934e-28
-3.133100e-28
-2.060870e-28
-1.191580e-28
-5.273261e-29
-2.453223e-29
-1.260764e-29
-6.748182e-30
-3.817673e-30
-9.885085e-31
1.000000e+00
1.000000e+00
1.000000e+00
1.000000e+00
1.000007e+00
1.000009e+00
9.999443e-01
9.942125e-01
9.638635e-01
8.861390e-01
7.588871e-01
5.119326e-01
3.893664e-01
1.921588e-01
9.242765e-02
3.721790e-02
1.169325e-02
2.329735e-03
6.058564e-05
1.478990e-05
1.566866e-05
1.318571e-05
7.312763e-06
2.227778e-06
4.137979e-07
2.147899e-07
2.023373e-07
1.327404e-07
6.260880e-08
2.829226e-08
1.317576e-08
6.030595e-09
2.745124e-09
1.242481e-09
5.822725e-10
1.897134e-10
2.229815e-11
1.739190e-12
2.122197e-12
1.586315e-12
8.308709e-13
1.752910e-13
-3.559662e-14
-2.948662e-14
-1.673547e-14
-7.221244e-15
-3.201906e-15
-8.404232e-16
1.394620e-17
9.857126e-18
7.439534e-18
3.761661e-18
1.527467e-18
5.599340e-19
1.145077e-19
-6.054350e-21
-2.931687e-21
-1.943207e-21
-9.858896e-22
-2.814758e-22
-2.989533e-23
-7.118665e-24
-1.667140e-23
-1.153163e-23
-5.064712e-24
-2.149569e-24
-8.140709e-25
-3.291464e-25
-1.296207e-25
-5.040718e-26
-1.663980e-26
-1.722327e-27
6.202866e-29
9.665009e-31
-1.751655e-29
-1.416167e-30
-1.055951e-30
-3.764543e-30
-3.770280e-30
-3.315170e-30
1.000000e+00
1.000000e+00
1.000000e+00
1.000000e+00
1.000002e+00
1.000006e+00
1.000009e+00
9.997494e-01
9.914522e-01
9.548527e-01
8.817696e-01
7.454330e-01
5.159469e-01
3.938428e-01
1.986813e-01
9.893123e-02
4.200482e-02
1.454771e-02
3.634097e-03
3.473724e-04
1.742782e-05
1.622426e-05
1.277218e-05
9.369655e-06
3.838885e-06
7.222349e-07
1.638385e-07
1.345185e-07
5.378614e-08
2.246606e-08
1.243726e-08
4.648768e-09
2.413399e-09
9.370478e-10
5.926993e-10
4.780709e-10
2.689692e-10
6.965686e-11
2.449082e-12
8.942610e-13
9.222553e-13
7.416237e-13
3.890045e-13
1.543186e-13
4.462980e-14
-3.306148e-15
-3.319773e-15
-2.817498e-15
-1.589390e-15
-6.999350e-16
-2.607805e-16
-4.793711e-17
6.730091e-19
1.368391e-18
8.303691e-19
3.868186e-19
1.462374e-19
2.656395e-20
-9.318670e-22
-8.087041e-22
-4.801597e-22
-1.521639e-22
-1.731529e-23
-6.579038e-24
-4.397730e-24
-1.367111e-24
-5.581548e-25
-3.306797e-25
-6.044967e-26
-3.430915e-26
-3.255363e-26
-1.978316e-26
-9.093106e-27
-4.074605e-27
-1.905613e-27
-8.970159e-28
-4.504143e-28
-1.538100e-28
-5.696035e-30
-1.834511e-30
1.000000e+00
1.000000e+00
1.000000e+00
1.000000e+00
1.000000e+00
1.000002e+00
1.000007e+00
9.999075e-01
9.998688e-01
9.863449e-01
9.508566e-01
8.715683e-01
7.384846e-01
5.161968e-01
3.972464e-01
2.052248e-01
1.052246e-01
4.640904e-02
1.747007e-02
5.025729e-03
6.132776e-04
7.548133e-06
6.917417e-06
9.085614e-06
7.856413e-06
4.965173e-06
2.371742e-06
1.172410e-06
5.623788e-07
2.687066e-07
1.269164e-07
6.067344e-08
2.958027e-08
1.079371e-08
1.886381e-09
4.786411e-10
3.764274e-10
2.813700e-10
1.328571e-10
2.912761e-11
7.996261e-13
5.561517e-13
3.070637e-13
1.168479e-13
1.032159e-13
6.292560e-14
2.605921e-14
1.039642e-14
2.941964e-15
-5.082995e-16
-4.700629e-16
-3.111475e-16
-1.635974e-16
-5.890883e-17
-1.157975e-17
5.897357e-19
2.868395e-19
1.686980e-19
6.072132e-20
8.429166e-21
-6.107463e-22
-4.819968e-22
-2.775489e-22
-1.236115e-22
-5.730851e-23
-2.535352e-23
-1.107286e-23
-5.021062e-24
-2.153356e-24
-4.375035e-25
-2.330269e-26
-4.798186e-27
-6.465432e-27
-7.270632e-28
-5.996169e-28
-6.067331e-28
-4.230519e-28
-3.678266e-28
-2.660462e-28
-8.117904e-29
1.000000e+00
1.000000e+00
1.000000e+00
1.000000e+00
1.000000e+00
1.000000e+00
1.000004e+00
9.999621e-01
9.999608e-01
9.976170e-01
9.838643e-01
9.447068e-01
8.634983e-01
7.326747e-01
5.158093e-01
4.002501e-01
2.116181e-01
1.117379e-01
5.058432e-02
2.041965e-02
7.053492e-03
1.711132e-03
2.211492e-04
1.199781e-05
7.741593e-06
-6.132966e-07
1.349124e-06
3.965998e-07
3.708888e-07
2.447794e-07
3.608188e-08
3.743799e-08
2.934799e-08
2.405601e-08
1.454006e-08
4.741630e-09
3.860098e-10
2.146607e-10
2.122907e-10
1.438783e-10
7.050734e-11
3.233305e-11
1.164820e-11
1.517395e-12
1.423594e-15
4.886965e-14
2.005487e-15
6.850011e-15
6.625243e-15
4.323495e-15
1.840889e-15
4.916490e-16
-1.584564e-16
-1.232965e-16
-7.212620e-17
-3.779213e-17
-1.072280e-17
-1.188629e-20
1.384803e-19
9.378831e-20
3.791132e-20
1.554118e-20
6.702289e-21
2.880937e-21
1.217132e-21
5.124937e-22
1.922795e-22
1.042656e-23
-2.350077e-24
-2.166926e-24
-1.077648e-24
-4.941418e-25
-2.286952e-25
-1.065178e-25
-5.008516e-26
-2.020326e-26
-2.771727e-27
-2.580825e-28
-2.556431e-28
-2.116471e-28
1.000000e+00
1.000000e+00
1.000000e+00
1.000000e+00
1.000000e+00
1.000000e+00
1.000002e+00
9.999847e-01
9.999890e-01
9.999555e-01
9.962800e-01
9.802644e-01
9.386920e-01
8.559189e-01
7.276777e-01
5.150249e-01
4.023115e-01
2.167478e-01
1.190032e-01
5.372212e-02
2.140951e-02
7.349612e-03
2.241804e-03
7.163712e-04
3.078489e-04
1.392494e-04
6.256568e-05
2.785418e-05
1.290290e-05
5.807255e-06
2.739945e-06
8.814869e-07
1.192946e-07
2.472257e-08
1.849085e-08
1.419095e-08
7.596611e-09
2.053012e-09
2.044045e-10
1.429519e-10
5.047040e-11
3.249578e-11
2.471754e-11
1.535038e-11
6.965496e-12
3.143999e-12
1.178208e-12
1.529249e-13
4.781287e-15
2.268648e-15
1.420471e-15
1.289568e-15
9.334223e-16
2.723309e-16
-4.805941e-17
-4.128023e-17
-3.139858e-17
-1.781933e-17
-7.789687e-18
-3.260275e-18
-1.359339e-18
-5.717326e-19
-2.405799e-19
-8.578733e-20
-1.949580e-20
2.386126e-22
3.387637e-22
2.440025e-22
1.115033e-22
5.026317e-23
2.235419e-23
9.988587e-24
4.243606e-24
1.076349e-24
-3.919412e-26
-3.662841e-26
-2.720071e-26
-1.063741e-26
-1.001206e-27
-2.223510e-28
1.000000e+00
1.000000e+00
1.000000e+00
1.000000e+00
1.000000e+00
1.000000e+00
1.000001e+00
9.999937e-01
9.999931e-01
9.999926e-01
9.996782e-01
9.947913e-01
9.764160e-01
9.334711e-01
8.476118e-01
7.250096e-01
5.158560e-01
4.044759e-01
2.192356e-01
1.311761e-01
6.153263e-02
2.463976e-02
8.092762e-03
1.887328e-03
3.030116e-04
1.207508e-04
6.424813e-05
2.414095e-05
1.105003e-05
4.956566e-06
2.801086e-06
2.254465e-06
1.227268e-06
3.147034e-07
2.147783e-08
1.277000e-08
1.095540e-08
7.872374e-09
4.060716e-09
1.932545e-09
7.764374e-10
1.517477e-10
1.571841e-11
6.905676e-12
5.820048e-12
2.947414e-12
2.422131e-12
1.518403e-12
7.082654e-13
2.630252e-13
2.175030e-14
-9.993434e-17
4.512870e-16
5.527224e-16
4.402227e-16
1.824909e-16
7.056684e-17
2.367244e-17
6.804470e-18
1.268749e-18
-3.577559e-19
-5.203682e-19
-2.689715e-19
-1.872012e-19
-1.153614e-19
-5.620388e-20
-2.171710e-20
-8.561091e-21
-3.505258e-21
-1.519310e-21
-5.697274e-22
-7.986720e-23
2.451575e-24
3.842516e-24
2.269580e-24
5.589895e-25
-2.354463e-26
-2.068411e-26
-1.487689e-26
-6.851592e-27
1.000000e+00
1.000000e+00
1.000000e+00
1.000000e+00
1.000000e+00
1.000000e+00
1.000000e+00
9.999985e-01
9.999949e-01
9.999949e-01
9.999918e-01
9.992801e-01
9.929880e-01
9.724002e-01
9.301979e-01
8.318948e-01
7.228607e-01
5.195081e-01
4.071147e-01
2.222982e-01
1.368401e-01
6.858903e-02
3.016422e-02
1.137126e-02
3.455947e-03
9.594148e-04
4.643383e-04
2.241271e-04
1.112770e-04
4.065289e-05
8.142897e-06
2.404310e-06
1.816175e-06
1.317895e-06
6.018235e-07
1.343450e-07
1.088730e-08
2.483076e-09
3.867031e-09
1.877435e-09
1.496173e-09
9.619961e-10
4.811470e-10
2.267397e-10
8.615708e-11
1.605529e-11
2.661948e-12
1.055094e-12
6.693599e-13
5.280510e-13
3.683764e-13
1.107065e-13
2.019782e-15
-7.981182e-16
-2.721717e-16
8.658465e-17
1.902431e-17
-4.633998e-17
-1.887217e-17
-4.296557e-18
-2.294874e-18
-1.867023e-18
-7.662997e-19
-1.831316e-19
-1.064023e-19
-5.210359e-20
-1.859480e-20
-7.200190e-21
-2.592236e-21
-1.174319e-21
-9.821261e-22
-6.869279e-22
-3.096487e-22
-5.846164e-23
3.640842e-24
1.992593e-24
1.191844e-24
5.062006e-25
1.830601e-25
3.915725e-26
1.000000e+00
1.000000e+00
1.000000e+00
1.000000e+00
1.000000e+00
1.000000e+00
1.000000e+00
1.000000e+00
9.999974e-01
9.999959e-01
9.999965e-01
9.999453e-01
9.989990e-01
9.902106e-01
9.711785e-01
9.210053e-01
8.231545e-01
7.195601e-01
5.218354e-01
4.078431e-01
2.281231e-01
1.366074e-01
6.950029e-02
3.126127e-02
1.173875e-02
3.376483e-03
5.550442e-04
2.192168e-04
1.194086e-04
9.796000e-05
5.563016e-05
1.693156e-05
2.143874e-06
1.092405e-06
9.786265e-07
6.643676e-07
3.295103e-07
1.558361e-07
5.968511e-08
1.098682e-08
1.183745e-09
8.398614e-10
2.526788e-10
2.277692e-10
1.689476e-10
1.065757e-10
5.308678e-11
2.085029e-11
2.939602e-12
5.717256e-13
3.676477e-13
2.961895e-13
1.767043e-13
7.888731e-14
3.535117e-14
1.585592e-14
7.150133e-15
3.142965e-15
1.373783e-15
6.215458e-16
1.908549e-16
3.980786e-18
-2.082365e-18
-1.729126e-18
-9.588233e-19
-4.800434e-19
-2.231410e-19
-1.015979e-19
-4.677838e-20
-1.381166e-20
-9.035718e-22
-6.365070e-22
-4.950533e-22
-3.426849e-22
-1.789167e-22
-7.928978e-23
-2.810328e-23
-3.170188e-24
4.295227e-25
1.625562e-25
1.000000e+00
1.000000e+00
1.000000e+00
1.000000e+00
1.000000e+00
1.000000e+00
1.000000e+00
1.000000e+00
9.999996e-01
9.999974e-01
9.999977e-01
9.999755e-01
9.999795e-01
9.975654e-01
9.896909e-01
9.671858e-01
9.134877e-01
8.160239e-01
7.166109e-01
5.214903e-01
4.107680e-01
2.331993e-01
1.463407e-01
7.662832e-02
3.644132e-02
1.521062e-02
5.244817e-03
1.312752e-03
2.923304e-04
9.940356e-05
8.410000e-05
6.168257e-05
2.977644e-05
8.155812e-06
9.562207e-07
5.725718e-07
2.722845e-07
1.423139e-07
1.181026e-07
7.599957e-08
3.653260e-08
1.739526e-08
6.507315e-09
1.135636e-09
8.025677e-11
7.195208e-11
4.881728e-11
4.017162e-11
2.838608e-11
9.601159e-12
8.407911e-13
8.636163e-14
7.716656e-14
3.893983e-14
2.572926e-14
1.616774e-14
4.699771e-15
1.638933e-15
1.110763e-15
6.028623e-16
4.890013e-16
2.881256e-16
1.271209e-16
5.416664e-17
2.251819e-17
9.666294e-18
2.904768e-18
3.635882e-20
-5.459529e-20
-4.587120e-20
-2.468298e-20
-6.296506e-21
-3.942367e-22
-3.240293e-22
-1.329337e-22
-7.982687e-23
-5.789663e-23
-3.565238e-23
-1.757225e-23
-6.643353e-24
1.000000e+00
1.000000e+00
1.000000e+00
1.000000e+00
1.000000e+00
1.000000e+00
1.000000e+00
1.000000e+00
1.000000e+00
9.999986e-01
9.999986e-01
9.999877e-01
9.999900e-01
9.996229e-01
9.969526e-01
9.879708e-01
9.629773e-01
9.062066e-01
8.112062e-01
7.119268e-01
5.210464e-01
4.143559e-01
2.385581e-01
1.469163e-01
7.673195e-02
3.694559e-02
1.602936e-02
5.927277e-03
1.810561e-03
4.359320e-04
8.977370e-05
6.056414e-05
4.732750e-05
3.149361e-05
1.519638e-05
5.892070e-06
2.502751e-06
7.222616e-07
1.336647e-07
6.813805e-08
3.700595e-08
1.704013e-08
1.357653e-08
8.439972e-09
4.182657e-09
1.575101e-09
2.032215e-10
3.583064e-11
2.812560e-11
2.294175e-11
1.392171e-11
6.469449e-12
2.978159e-12
1.379014e-12
6.382672e-13
3.015502e-13
1.364528e-13
6.550958e-14
2.177341e-14
2.106939e-15
1.151315e-17
1.837475e-16
3.306988e-17
2.116249e-17
1.191643e-17
9.297534e-18
7.265781e-18
4.297630e-18
1.248906e-18
-4.529686e-20
-3.326125e-20
-2.435350e-20
-1.269052e-20
-6.011662e-21
-2.447329e-21
-5.176887e-22
-3.008844e-23
-1.875001e-23
-1.549699e-23
-6.491004e-24
1.000000e+00
1.000000e+00
1.000000e+00
1.000000e+00
1.000000e+00
1.000000e+00
1.000000e+00
1.000000e+00
1.000000e+00
9.999995e-01
9.999995e-01
9.999941e-01
9.999928e-01
9.999841e-01
9.993581e-01
9.962117e-01
9.859840e-01
9.585914e-01
8.992684e-01
8.087732e-01
7.066692e-01
5.196481e-01
4.154451e-01
2.429452e-01
1.591103e-01
8.338765e-02
4.027274e-02
1.765563e-02
6.894905e-03
2.330170e-03
6.576822e-04
1.583962e-04
5.717631e-05
3.600076e-05
2.305548e-05
1.097490e-05
4.323093e-06
2.835877e-06
1.518113e-06
7.071182e-07
2.995201e-07
6.903552e-08
1.432945e-08
6.089596e-09
4.048475e-09
3.129194e-09
2.176408e-09
7.072669e-10
8.332140e-11
2.010661e-11
1.180047e-11
5.786055e-12
2.526943e-12
1.166823e-12
5.956854e-13
1.615120e-13
1.360504e-13
6.920877e-14
5.435964e-14
3.215133e-14
1.494371e-14
6.762861e-15
3.048563e-15
1.404668e-15
4.543370e-16
4.932346e-17
4.709863e-18
4.768423e-18
3.792352e-18
2.122538e-18
8.836499e-19
3.807182e-19
1.117962e-19
-4.229763e-21
-4.248261e-21
-2.992892e-21
-1.487795e-21
-6.739826e-22
-3.128852e-22
-1.251660e-22
1.000000e+00
1.000000e+00
1.000000e+00
1.000000e+00
1.000000e+00
1.000000e+00
1.000000e+00
1.000000e+00
1.000000e+00
9.999998e-01
9.999998e-01
9.999982e-01
9.999942e-01
9.999951e-01
9.999325e-01
9.991072e-01
9.953184e-01
9.837670e-01
9.546659e-01
8.884662e-01
8.114903e-01
7.048926e-01
5.184639e-01
4.165023e-01
2.444595e-01
1.649005e-01
8.850220e-02
4.341336e-02
1.932567e-02
7.740114e-03
2.733478e-03
8.233796e-04
2.222073e-04
7.343634e-05
4.115411e-05
2.743853e-05
1.303845e-05
3.283114e-06
1.560606e-06
7.102578e-07
5.589233e-07
3.575745e-07
1.898798e-07
7.593353e-08
1.271830e-08
2.796672e-09
1.971508e-09
1.664944e-09
1.016988e-09
4.690620e-10
2.154492e-10
1.014958e-10
4.703730e-11
2.171087e-11
1.009082e-11
4.902078e-12
1.652112e-12
1.915757e-13
5.440067e-14
2.448166e-14
1.253588e-14
2.870080e-15
2.970528e-15
1.463342e-15
1.130529e-15
6.323208e-16
1.757068e-16
6.790925e-18
-1.661839e-18
3.473939e-20
3.042698e-19
3.254658e-19
2.846346e-19
1.706063e-19
7.312013e-20
3.079057e-20
1.294191e-20
5.431238e-21
2.295312e-21
9.542191e-22
1.000000e+00
1.000000e+00
1.000000e+00
1.000000e+00
1.000000e+00
1.000000e+00
1.000000e+00
1.000000e+00
1.000000e+00
9.999999e-01
9.999999e-01
9.999998e-01
9.999968e-01
9.999959e-01
9.999964e-01
9.998342e-01
9.989791e-01
9.937459e-01
9.845899e-01
9.402669e-01
8.937223e-01
7.989431e-01
7.032338e-01
5.214251e-01
4.170722e-01
2.477991e-01
1.704697e-01
9.365491e-02
4.706322e-02
2.143401e-02
8.826328e-03
3.228282e-03
1.017761e-03
2.724875e-04
7.345433e-05
3.759050e-05
2.890829e-05
1.914733e-05
9.162811e-06
2.929573e-06
5.803228e-07
3.312295e-07
1.918461e-07
1.453001e-07
1.018112e-07
3.879151e-08
7.837714e-09
1.480810e-09
8.949329e-10
2.919512e-10
2.085385e-10
1.039772e-10
4.369511e-11
1.382142e-11
9.548810e-12
4.994502e-12
3.980154e-12
2.445804e-12
1.173034e-12
5.197632e-13
2.400227e-13
1.184146e-13
3.848062e-14
5.782913e-15
9.700385e-16
8.684759e-16
6.373810e-16
3.331118e-16
1.475066e-16
6.667678e-17
2.116478e-17
1.740395e-18
1.759544e-19
1.296167e-19
6.503024e-20
2.804208e-20
1.137373e-20
-4.716816e-21
1.739623e-21
8.780275e-22
1.000000e+00
1.000000e+00
1.000000e+00
1.000000e+00
1.000000e+00
1.000000e+00
1.000000e+00
1.000000e+00
1.000000e+00
1.000000e+00
9.999999e-01
9.999999e-01
9.999992e-01
9.999968e-01
9.999970e-01
9.999265e-01
9.999803e-01
9.969141e-01
9.967931e-01
9.755000e-01
9.435988e-01
8.871443e-01
7.906586e-01
7.010082e-01
5.218827e-01
4.173621e-01
2.502833e-01
1.743655e-01
9.761994e-02
5.031082e-02
2.348403e-02
9.961628e-03
3.818001e-03
1.294093e-03
3.723077e-04
8.405825e-05
2.789561e-05
1.933328e-05
1.406412e-05
9.465762e-06
4.913100e-06
1.827554e-06
5.346737e-07
1.557849e-07
9.889418e-08
7.660471e-08
4.964245e-08
2.463205e-08
1.150915e-08
5.529523e-09
2.572797e-09
1.236387e-09
5.613451e-10
2.778209e-10
9.717450e-11
1.376720e-11
3.932016e-12
2.018589e-12
1.199593e-12
3.799331e-13
1.828775e-13
1.148266e-13
9.345461e-14
5.271940e-14
1.448974e-14
5.975199e-16
5.273910e-16
3.400700e-16
1.111611e-16
6.341949e-17
5.253736e-17
3.142452e-17
1.375869e-17
6.044907e-18
2.679160e-18
1.200619e-18
5.387835e-19
2.505011e-19
1.107303e-19
5.050907e-20
1.000000e+00
1.000000e+00
1.000000e+00
1.000000e+00
1.000000e+00
1.000000e+00
1.000000e+00
1.000000e+00
1.000000e+00
1.000000e+00
1.000000e+00
9.999999e-01
9.999999e-01
9.999984e-01
9.999988e-01
9.999674e-01
9.999731e-01
9.986487e-01
9.986080e-01
9.924043e-01
9.749141e-01
9.412019e-01
8.822927e-01
7.836246e-01
6.994052e-01
5.244102e-01
4.205815e-01
2.545769e-01
1.790094e-01
1.014363e-01
5.355290e-02
2.549253e-02
1.101073e-02
4.343562e-03
1.570795e-03
5.165817e-04
1.487736e-04
4.512071e-05
1.846151e-05
1.136825e-05
7.579911e-06
4.125000e-06
2.288632e-06
1.169453e-06
4.154226e-07
8.307624e-08
4.104629e-08
2.203000e-08
9.702160e-09
5.126282e-09
2.515207e-09
1.210174e-09
5.398291e-10
2.771894e-10
2.246309e-10
1.414379e-10
6.681540e-11
3.104505e-11
1.494242e-11
7.083059e-12
2.430986e-12
4.210349e-13
9.283315e-14
7.650227e-14
5.596303e-14
2.883652e-14
1.290539e-14
6.397918e-15
2.119312e-15
2.596480e-16
1.981444e-17
2.421212e-17
5.038175e-18
4.513302e-18
2.144456e-18
9.688483e-19
4.915580e-19
4.895268e-20
8.874652e-20
5.062106e-20
1.000000e+00
1.000000e+00
1.000000e+00
1.000000e+00
1.000000e+00
1.000000e+00
1.000000e+00
1.000000e+00
1.000000e+00
1.000000e+00
1.000000e+00
1.000000e+00
1.000000e+00
9.999992e-01
9.999993e-01
9.999852e-01
9.999911e-01
9.993973e-01
9.993784e-01
9.979849e-01
9.905417e-01
9.730639e-01
9.372588e-01
8.796837e-01
7.714908e-01
6.917885e-01
5.232501e-01
4.221702e-01
2.585616e-01
1.840064e-01
1.048495e-01
5.702361e-02
2.784639e-02
1.221566e-02
4.839178e-03
1.749211e-03
5.806194e-04
1.840587e-04
6.082843e-05
2.367608e-05
1.239753e-05
7.617968e-06
3.553358e-06
1.649005e-06
1.047814e-06
6.545735e-07
3.314011e-07
1.740316e-07
8.801267e-08
4.253847e-08
2.091923e-08
1.054823e-08
4.276700e-09
9.248552e-10
2.080871e-10
1.286655e-10
6.630551e-11
2.207984e-11
1.461299e-11
6.956109e-12
5.793548e-12
3.151726e-12
8.999819e-13
6.889779e-14
3.731159e-14
1.165042e-14
1.088899e-14
6.309246e-15
5.038734e-15
3.045047e-15
1.377792e-15
6.072113e-16
2.778905e-16
1.244278e-16
5.560192e-17
2.501270e-17
1.131593e-17
5.533911e-18
1.706725e-18
2.150199e-19
1.000000e+00
1.000000e+00
1.000000e+00
1.000000e+00
1.000000e+00
1.000000e+00
1.000000e+00
1.000000e+00
1.000000e+00
1.000000e+00
1.000000e+00
1.000000e+00
1.000000e+00
9.999996e-01
9.999996e-01
9.999931e-01
9.999954e-01
9.997760e-01
9.995596e-01
9.994720e-01
9.969938e-01
9.892732e-01
9.704684e-01
9.338047e-01
8.782817e-01
7.661840e-01
6.869063e-01
5.219621e-01
4.232742e-01
2.619550e-01
1.899431e-01
1.067805e-01
5.992892e-02
3.036802e-02
1.380450e-02
5.622752e-03
2.055262e-03
6.828886e-04
2.160501e-04
7.230825e-05
2.736790e-05
1.361223e-05
9.740089e-06
4.348026e-06
1.387270e-06
5.988782e-07
3.150790e-07
1.620945e-07
8.036379e-08
4.190573e-08
1.864097e-08
1.046480e-08
8.565710e-09
5.494024e-09
2.744192e-09
1.324508e-09
6.325075e-10
3.231329e-10
1.118588e-10
2.334115e-11
6.188965e-12
4.999876e-12
3.483859e-12
1.868241e-12
8.667652e-13
4.393105e-13
1.463290e-13
1.916686e-14
3.523548e-15
2.879470e-15
1.355116e-15
6.127159e-16
1.443707e-16
8.031329e-17
4.169155e-17
1.842252e-17
7.649210e-18
5.357808e-18
4.497339e-18
2.368396e-18
1.000000e+00
1.000000e+00
1.000000e+00
1.000000e+00