# vtk DataFile Version 3.0
MUSCL
ASCII
DATASET STRUCTURED_POINTS
DIMENSIONS 80 80 1
ORIGIN 0 0 0
SPACING 0.0125 0.0125 1
POINT_DATA 6400
SCALARS Temperature double 1
LOOKUP_TABLE default
0.000000e+00
-6.739984e-01
-1.939410e-01
-2.456749e-02
-3.514337e-04
3.198209e-05
2.105460e-06
-1.248315e-07
-1.914100e-07
-1.199039e-07
-5.442675e-08
-2.265505e-08
-9.493132e-09
-4.036516e-09
-1.838951e-09
-3.466019e-10
6.362111e-12
4.010846e-12
2.075172e-12
7.058526e-13
3.684732e-13
1.592858e-13
6.226195e-14
2.285315e-14
8.032447e-15
2.717190e-15
8.809130e-16
2.722543e-16
8.070290e-17
2.386710e-17
7.848550e-18
3.153434e-18
1.526591e-18
7.796747e-19
3.764163e-19
1.646342e-19
6.453312e-20
2.256398e-20
7.109443e-21
2.039416e-21
5.387044e-22
1.334405e-22
3.350939e-23
5.269889e-24
-4.193890e-26
-1.139915e-25
-8.403593e-26
-4.174326e-26
-2.033517e-26
-1.108003e-26
-5.094850e-28
2.148098e-28
1.106697e-28
1.633361e-29
7.606693e-30
1.918996e-30
1.920200e-30
3.528470e-31
1.408957e-31
5.062964e-32
1.925105e-32
1.326773e-32
1.660857e-33
-1.150973e-34
-5.817280e-35
-2.509476e-35
-4.896562e-36
-1.188470e-37
1.630186e-37
8.255109e-38
3.454512e-38
1.427740e-38
5.028957e-39
2.170923e-39
8.004702e-40
2.690262e-40
8.067431e-41
2.138826e-41
4.990128e-42
9.792664e-43
1.326002e+00
6.739984e-01
1.939410e-01
2.456749e-02
3.514337e-04
-3.198209e-05
-2.105460e-06
1.248315e-07
1.914100e-07
1.199039e-07
5.442675e-08
2.265505e-08
9.493132e-09
4.036516e-09
1.838951e-09
3.466019e-10
-6.362111e-12
-4.010846e-12
-2.075172e-12
-7.058526e-13
-3.684732e-13
-1.592858e-13
-6.226195e-14
-2.285315e-14
-8.032447e-15
-2.717190e-15
-8.809130e-16
-2.722543e-16
-8.070290e-17
-2.386710e-17
-7.848550e-18
-3.153434e-18
-1.526591e-18
-7.796747e-19
-3.764163e-19
-1.646342e-19
-6.453312e-20
-2.256398e-20
-7.109443e-21
-2.039416e-21
-5.387044e-22
-1.334405e-22
-3.350939e-23
-5.269889e-24
4.193890e-26
1.139915e-25
8.403593e-26
4.174326e-26
2.033517e-26
1.108003e-26
5.094850e-28
-2.148098e-28
-1.106697e-28
-1.633361e-29
-7.606693e-30
-1.918996e-30
-1.920200e-30
-3.528470e-31
-1.408957e-31
-5.062964e-32
-1.925105e-32
-1.326773e-32
-1.660857e-33
1.150973e-34
5.817280e-35
2.509476e-35
4.896562e-36
1.188470e-37
-1.630186e-37
-8.255109e-38
-3.454512e-38
-1.427740e-38
-5.028957e-39
-2.170923e-39
-8.004702e-40
-2.690262e-40
-8.067431e-41
-2.138826e-41
-4.990128e-42
-9.792664e-43
1.041963e+00
9.580375e-01
5.985715e-01
2.398095e-01
5.878659e-02
3.850512e-03
-1.137467e-04
-6.656358e-05
-3.128515e-05
-1.271909e-05
-5.474951e-06
-2.419378e-06
-1.070344e-06
-3.007524e-07
-2.900903e-09
8.811361e-10
1.108793e-09
4.142576e-10
1.398566e-11
-1.911472e-12
1.125347e-12
1.785736e-12
8.792514e-13
2.673281e-13
6.724003e-14
1.391673e-14
2.261232e-15
2.297579e-16
-1.989734e-17
-2.186258e-17
1.402427e-17
4.516551e-18
3.258706e-18
6.675623e-19
-1.672782e-19
-4.100047e-20
6.714676e-20
1.366320e-20
-1.436879e-21
1.263149e-22
6.022796e-22
2.007612e-22
-2.557734e-23
-1.661720e-23
-1.432791e-23
-1.442127e-23
-1.014498e-23
-6.509580e-24
-3.544406e-24
-5.026816e-25
-1.483786e-26
1.372445e-26
1.146043e-26
4.706720e-27
1.879968e-27
6.764594e-28
2.252709e-28
7.043399e-29
2.063436e-29
5.836301e-30
2.260400e-30
2.058414e-31
-3.356178e-32
-1.253499e-32
-5.359829e-33
-1.188817e-33
-3.939271e-35
1.797856e-35
1.654506e-35
8.358378e-36
3.839482e-36
9.672042e-37
-3.258443e-39
3.244136e-38
6.053154e-38
2.352071e-38
6.514020e-39
1.580388e-39
3.370163e-40
6.839425e-41
1.000576e+00
9.994240e-01
8.851474e-01
5.931894e-01
2.705690e-01
8.406723e-02
1.588544e-02
1.149050e-03
4.549006e-04
1.998073e-04
7.219443e-05
8.884683e-06
-1.456267e-06
-9.614803e-07
-5.734862e-07
-2.015554e-07
-1.749053e-08
1.244726e-09
7.474358e-10
1.751546e-10
-7.838894e-12
-1.925836e-12
-5.499580e-13
3.024559e-16
-6.909488e-15
-2.388026e-14
-1.663060e-14
-8.311438e-15
-3.748059e-15
-1.641952e-15
-7.403245e-16
-3.345780e-16
-1.494358e-16
-6.665581e-17
-2.921128e-17
-1.248574e-17
-5.096845e-18
-2.029708e-18
-7.958841e-19
-2.848707e-19
-8.057432e-20
-1.362940e-20
4.597334e-22
4.802328e-22
3.066101e-22
1.279047e-22
4.331047e-23
8.428791e-24
-2.157340e-24
-3.542538e-24
-2.783479e-24
-1.318908e-24
-6.160598e-25
-2.747622e-25
-1.167178e-25
-4.644904e-26
-1.753500e-26
-6.307761e-27
-2.224631e-27
-7.345453e-28
-5.959794e-29
4.675439e-30
1.989495e-30
5.880082e-31
2.940813e-33
-5.430975e-33
-3.632800e-33
-2.130823e-33
-1.214194e-33
-4.744843e-34
-7.954495e-36
2.574337e-36
3.033752e-36
1.352179e-36
-9.673282e-38
-1.808249e-37
-6.683745e-38
-1.656176e-38
-3.453381e-39
-6.785194e-40
9.999020e-01
1.000098e+00
9.863011e-01
8.523424e-01
5.808632e-01
2.963081e-01
9.856922e-02
2.173106e-02
5.956807e-04
1.270935e-04
1.363503e-04
8.839882e-05
4.000327e-05
7.638590e-06
-6.566735e-07
-4.507269e-07
-2.747661e-07
-8.980308e-08
-1.990960e-09
9.086099e-10
4.949804e-10
1.958112e-10
7.849708e-11
3.164754e-11
1.064094e-11
2.035866e-12
1.675094e-14
1.708990e-14
4.874971e-14
3.158241e-14
1.849204e-14
1.039716e-14
5.230274e-15
2.340757e-15
9.402901e-16
3.401360e-16
1.122652e-16
3.424739e-17
8.907269e-18
1.655879e-18
1.571057e-19
-9.898221e-21
-4.180060e-20
-3.047879e-20
-1.457700e-20
-7.246585e-21
-3.415314e-21
-7.122029e-22
5.839540e-24
6.366315e-24
3.356306e-24
5.516896e-25
-1.251467e-25
-1.414081e-25
-9.040711e-26
-4.363156e-26
-1.819060e-26
1.443588e-26
8.839515e-28
-6.708550e-28
-6.562520e-28
-3.125275e-28
-2.708804e-29
3.901203e-31
1.903872e-30
1.075918e-30
4.744385e-31
1.322514e-31
1.327326e-33
-7.222093e-34
-8.114236e-34
-5.028496e-34
-1.914929e-34
-2.556593e-35
2.075604e-36
3.815036e-37
1.403167e-37
5.730029e-38
2.428591e-38
1.216937e-38
9.999715e-01
1.000028e+00
1.000127e+00
9.656750e-01
8.296267e-01
5.646398e-01
3.364748e-01
1.266479e-01
3.476733e-02
2.643816e-03
-3.965064e-05
6.067627e-05
5.769766e-05
4.194868e-05
1.851370e-05
2.889973e-06
-1.994216e-07
-2.402209e-07
-1.443627e-07
-6.073759e-08
-2.485643e-08
-1.027665e-08
-3.056960e-09
-2.302629e-10
2.559766e-11
1.343961e-11
4.995527e-12
8.228952e-13
4.202197e-14
1.932751e-14
9.255571e-15
1.020362e-14
4.359769e-15
1.824704e-15
1.094801e-15
4.196430e-16
1.621860e-16
6.185582e-17
2.328690e-17
8.408725e-18
2.616203e-18
5.280056e-19
1.115485e-20
-2.332024e-20
-9.471760e-21
-6.908714e-21
-3.253488e-21
-2.163035e-21
-1.586865e-21
-7.629655e-22
-3.514307e-22
-1.561290e-22
-6.697636e-23
-2.753951e-23
-1.075897e-23
-4.018756e-24
-1.511711e-24
-5.354489e-25
-1.050502e-25
8.576548e-29
-7.784809e-29
-2.576905e-28
-2.907082e-28
-2.146705e-28
-1.093875e-28
-2.767319e-29
5.560038e-31
4.738009e-31
3.274469e-31
1.524333e-31
6.848450e-32
1.480648e-32
1.293616e-34
-1.468726e-34
-9.228931e-35
-3.898385e-35
-1.635634e-35
-6.966929e-36
-2.937159e-36
-1.220330e-36
9.999966e-01
1.000003e+00
1.000049e+00
9.983876e-01
9.484301e-01
8.110692e-01
5.426443e-01
3.576604e-01
1.479300e-01
5.009935e-02
9.674714e-03
2.194065e-04
-2.646157e-06
3.344754e-05
3.139756e-05
2.082531e-05
1.039628e-05
4.345974e-06
1.837326e-06
6.998734e-07
9.228144e-08
-9.126545e-09
-8.300913e-09
-4.772124e-09
-1.441138e-09
-8.515500e-12
2.504903e-11
8.273675e-12
3.370716e-12
1.551399e-12
6.903133e-13
3.030686e-13
9.637050e-14
2.241626e-14
2.196120e-16
2.884073e-16
-4.572650e-17
-7.960227e-17
-4.227299e-17
-1.795403e-17
-7.962435e-18
-3.608484e-18
-1.632159e-18
-7.250528e-19
-3.189073e-19
-9.418639e-20
-2.332241e-20
-1.701816e-21
-1.474206e-21
-7.058492e-22
-2.202363e-22
-1.024237e-22
-5.302396e-23
-9.779946e-24
-9.791539e-24
-3.471409e-24
-2.146576e-24
-9.949865e-25
-4.712233e-25
-2.033597e-25
-3.626712e-26
-1.060056e-28
1.199148e-28
-3.861461e-30
-9.865162e-29
-9.697543e-29
-6.089074e-29
-3.287811e-29
-1.000013e-29
-1.554000e-32
7.547460e-32
5.936317e-32
2.978603e-32
1.281678e-32
5.705524e-33
2.545620e-33
1.121647e-33
4.857894e-34
2.087776e-34
4.795832e-35
9.999993e-01
1.000001e+00
1.000012e+00
9.999819e-01
9.918411e-01
9.348519e-01
7.949511e-01
5.168409e-01
3.729777e-01
1.555655e-01
5.840930e-02
1.603180e-02
2.080543e-03
8.659019e-05
2.361045e-05
2.066398e-05
1.062439e-05
4.305951e-06
1.842020e-06
1.056424e-06
7.873349e-07
3.205280e-07
4.018328e-08
-4.644937e-09
-4.135745e-09
-2.399968e-09
-1.001587e-09
-4.177404e-10
-1.753781e-10
-7.053942e-11
-2.185334e-11
-1.884584e-12
2.777811e-13
1.395747e-13
5.873805e-14
2.232623e-14
8.907031e-15
3.858471e-15
1.807919e-15
8.836116e-16
4.355810e-16
2.156680e-16
9.310182e-17
1.217711e-17
-2.455886e-19
-2.314650e-19
-1.214396e-19
-5.217214e-20
-2.080468e-20
-9.762509e-21
-4.743508e-21
-2.291539e-21
-1.136198e-21
-5.182609e-22
-1.837829e-22
-3.383296e-23
1.024494e-24
-5.297634e-25
-4.120286e-25
-2.082276e-25
-1.534452e-25
-8.088997e-26
-3.779751e-26
-7.639790e-27
-1.672728e-28
-2.450419e-29
-1.753196e-29
-3.048875e-29
-2.915847e-29
-1.832036e-29
-8.537749e-30
-3.977853e-30
-1.860353e-30
-8.662127e-31
-3.969823e-31
-1.781246e-31
-7.894536e-32
-2.233595e-32
-2.172218e-34
2.733916e-34
9.999997e-01
1.000000e+00
1.000000e+00
1.000024e+00
9.999690e-01
9.846926e-01
9.217747e-01
7.795462e-01
5.213061e-01
3.784204e-01
1.650784e-01
6.658902e-02
2.035884e-02
4.183120e-03
3.551637e-04
7.504588e-05
4.357108e-05
2.417836e-05
9.234252e-06
2.012949e-06
7.894775e-07
6.637049e-07
4.276663e-07
2.110112e-07
8.926448e-08
3.776226e-08
1.646052e-08
5.640089e-09
6.046063e-10
-8.693154e-11
-6.654060e-11
-3.811575e-11
-1.733125e-11
-7.568375e-12
-3.334469e-12
-1.477982e-12
-6.556497e-13
-2.899004e-13
-1.268486e-13
-5.669290e-14
-1.492687e-14
2.366253e-16
1.257739e-16
8.394156e-17
2.084942e-17
-1.565822e-19
-1.859290e-19
-5.560697e-20
-1.448096e-20
-8.040304e-21
-4.114804e-21
-1.871177e-21
-9.836109e-22
-8.249690e-22
-5.419954e-22
-3.164649e-22
-1.481814e-22
-6.614067e-23
-1.849240e-23
-8.454988e-25
1.298414e-25
-4.251995e-26
-4.846048e-26
-3.633978e-26
-2.064926e-26
-8.799001e-27
-2.627335e-27
-1.260246e-28
-6.564426e-30
2.732387e-30
-2.691957e-30
-3.786912e-30
-1.308616e-30
-4.879146e-31
-6.799133e-33
-1.945558e-33
-6.811655e-32
-6.357668e-32
-3.935179e-32
-1.633685e-32
9.999999e-01
1.000000e+00
1.000000e+00
1.000011e+00
1.000035e+00
9.988415e-01
9.786724e-01
9.080129e-01
7.698586e-01
5.221445e-01
3.811525e-01
1.771008e-01
7.554696e-02
2.526829e-02
5.840479e-03
4.154336e-04
3.450568e-05
2.858159e-05
2.356682e-05
1.281646e-05
3.621239e-06
6.855572e-07
4.052802e-07
2.125540e-07
8.915546e-08
3.685927e-08
1.686606e-08
1.124914e-08
7.569604e-09
3.738781e-09
1.632167e-09
6.766188e-10
2.746646e-10
1.104112e-10
4.410718e-11
1.740850e-11
7.052380e-12
1.976129e-12
1.322158e-14
-6.253379e-14
-5.179995e-14
-2.645514e-14
-4.459863e-15
1.958346e-16
1.075775e-16
4.648677e-17
-3.932853e-19
-4.133674e-19
-2.630912e-19
-1.102442e-19
-4.923936e-20
-2.287652e-20
-7.652072e-21
-1.229995e-21
-2.439259e-22
4.802112e-23
1.248899e-23
-5.851226e-23
-4.869516e-23
-2.721312e-23
-1.014570e-23
-1.456407e-24
-1.224986e-27
-1.289301e-26
-1.858057e-26
-1.556018e-26
-1.052756e-26
-6.004953e-27
-2.688650e-27
-1.225216e-27
-5.639930e-28
-2.595270e-28
-1.194892e-28
-5.596048e-29
-2.008614e-29
-2.755108e-30
-9.585257e-32
-4.084652e-32
-3.365701e-32
-1.669390e-32
9.999999e-01
1.000000e+00
1.000000e+00
1.000002e+00
1.000015e+00
9.999885e-01
9.972296e-01
9.710155e-01
8.969475e-01
7.615649e-01
5.237160e-01
3.740779e-01
1.874243e-01
8.572197e-02
3.189781e-02
8.838441e-03
1.194925e-03
3.588948e-05
2.405382e-05
2.055046e-05
1.499295e-05
5.899409e-06
1.759756e-06
8.588141e-07
4.554301e-07
2.470471e-07
9.770866e-08
1.657373e-08
7.679894e-09
3.199782e-09
1.548045e-09
6.368791e-10
1.978757e-10
9.927583e-11
4.513599e-11
1.284225e-11
7.200670e-12
5.277675e-12
2.726101e-12
7.418476e-13
-3.747761e-14
-4.011856e-14
-2.986098e-14
-1.218865e-14
-1.048642e-15
8.146063e-17
8.484937e-17
4.347502e-17
1.903354e-17
7.780101e-18
1.953801e-18
-5.191814e-21
-1.271457e-20
-9.959939e-21
-1.877277e-21
6.087459e-23
8.846972e-23
5.151371e-23
-1.696456e-24
-1.976813e-23
-1.748674e-23
-1.234206e-23
-4.917193e-24
-1.543200e-24
-3.104030e-25
2.758122e-26
-5.890190e-27
-5.050808e-27
-1.683549e-27
-3.439377e-28
-1.460473e-28
-1.561019e-28
-1.065567e-28
-6.198053e-29
-4.416711e-29
-2.795255e-29
-1.374700e-29
-5.922867e-30
-2.546857e-30
-1.079079e-30
9.999999e-01
1.000000e+00
1.000000e+00
1.000000e+00
1.000008e+00
1.000009e+00
9.999407e-01
9.942193e-01
9.638769e-01
8.861453e-01
7.589001e-01
5.119075e-01
3.893472e-01
1.920987e-01
9.232971e-02
3.712754e-02
1.163171e-02
2.318635e-03
5.420106e-05
1.366539e-05
1.544376e-05
1.316794e-05
6.279561e-06
1.333403e-06
4.311234e-07
2.762052e-07
2.222743e-07
1.399595e-07
7.147961e-08
3.509580e-08
1.700540e-08
8.056427e-09
3.749667e-09
1.712553e-09
8.118670e-10
2.631855e-10
4.152999e-11
5.334079e-12
3.756493e-12
2.530968e-12
1.414968e-12
3.630633e-13
-2.724892e-14
-2.299981e-14
-1.484529e-14
-7.063503e-15
-3.231175e-15
-8.689419e-16
2.028167e-17
1.101504e-17
7.568667e-18
4.169104e-18
1.203729e-18
2.159778e-20
-1.175626e-20
-5.414777e-21
-1.572033e-21
-3.265824e-22
-2.863585e-23
-6.680251e-24
-1.284355e-23
-1.169390e-23
-6.286998e-24
-5.540768e-24
-3.283662e-24
-1.523738e-24
-6.814217e-25
-3.081300e-25
-1.355781e-25
-5.606566e-26
-2.346041e-26
-9.965460e-27
-3.141338e-27
-1.931280e-29
1.802187e-30
-1.439920e-29
-9.163186e-30
-4.668840e-30
-2.969399e-30
-1.666253e-30
1.000000e+00
1.000000e+00
1.000000e+00
1.000000e+00
1.000002e+00
1.000007e+00
1.000006e+00
9.997411e-01
9.914597e-01
9.548597e-01
8.817668e-01
7.454257e-01
5.159541e-01
3.938407e-01
1.986192e-01
9.884966e-02
4.193201e-02
1.450584e-02
3.616257e-03
3.410647e-04
1.506057e-05
1.610806e-05
1.367743e-05
9.692688e-06
3.470637e-06
5.205612e-07
2.175759e-07
1.099119e-07
5.334610e-08
3.496769e-08
1.562566e-08
8.109806e-09
3.153709e-09
1.433401e-09
7.638654e-10
6.324348e-10
3.429086e-10
9.916164e-11
6.103862e-12
1.373488e-12
1.431898e-12
1.150452e-12
6.109470e-13
2.379017e-13
7.931553e-14
6.697177e-15
-3.180490e-15
-2.845176e-15
-1.627277e-15
-7.539740e-16
-2.281057e-16
3.663727e-19
3.184312e-18
2.225936e-18
9.048801e-19
3.767104e-19
8.640303e-20
1.207400e-21
-3.424040e-23
-2.503081e-22
-1.780900e-22
-8.202116e-23
-2.182972e-23
-5.854511e-24
-3.261063e-24
-1.439883e-24
-6.388624e-25
-3.103359e-25
-1.607086e-25
-9.916590e-26
-4.463886e-26
-2.149777e-26
-1.158105e-26
-6.032452e-27
-2.592614e-27
-1.140447e-27
-4.830356e-28
-1.436868e-28
-2.544512e-30
-1.515433e-30
1.000000e+00
1.000000e+00
1.000000e+00
1.000000e+00
1.000001e+00
1.000003e+00
1.000006e+00
9.999069e-01
9.998801e-01
9.863545e-01
9.508449e-01
8.715493e-01
7.384847e-01
5.161991e-01
3.972224e-01
2.051690e-01
1.051637e-01
4.636341e-02
1.744095e-02
5.007363e-03
5.895899e-04
-3.571251e-06
6.369062e-06
9.060700e-06
8.084460e-06
5.197325e-06
2.511661e-06
1.228509e-06
5.951763e-07
2.912375e-07
1.448098e-07
7.103494e-08
3.554138e-08
1.429356e-08
3.190935e-09
6.216594e-10
5.289311e-10
3.674310e-10
1.796132e-10
4.598435e-11
1.581740e-12
8.564583e-13
4.801743e-13
1.962866e-13
1.518183e-13
8.657487e-14
3.862865e-14
1.497049e-14
3.565980e-15
-7.416918e-16
-6.241064e-16
-3.648943e-16
-1.630414e-16
-4.677767e-17
6.798776e-19
4.187179e-19
2.974831e-19
1.547977e-19
6.619293e-20
1.665636e-20
-5.160223e-23
-9.813896e-23
-8.621977e-23
-4.279571e-23
-1.404500e-23
-4.362475e-24
-1.550660e-24
-6.608227e-25
-2.909362e-25
-1.036602e-25
-4.179292e-26
-1.775468e-26
-7.555030e-27
-2.965477e-27
-1.219488e-27
-9.020826e-28
-6.424697e-28
-4.240183e-28
-2.325246e-28
-1.110463e-28
1.000000e+00
1.000000e+00
1.000000e+00
1.000000e+00
1.000000e+00
1.000000e+00
1.000004e+00
9.999630e-01
9.999622e-01
9.976205e-01
9.838813e-01
9.447176e-01
8.634944e-01
7.326592e-01
5.157767e-01
4.002066e-01
2.115663e-01
1.116935e-01
5.054659e-02
2.038741e-02
7.033074e-03
1.715481e-03
2.163350e-04
1.603417e-05
7.292133e-06
4.580320e-06
-7.675410e-08
5.591684e-07
4.568453e-07
1.336118e-07
6.650972e-08
5.662605e-08
3.446501e-08
2.861120e-08
1.774031e-08
6.007154e-09
5.874560e-10
3.114957e-10
2.739166e-10
1.869042e-10
9.553755e-11
4.073688e-11
1.435565e-11
2.052352e-12
1.520170e-13
7.496987e-14
3.281677e-14
1.541005e-14
1.040461e-14
6.014755e-15
2.305601e-15
2.863884e-16
-1.716036e-16
-1.364669e-16
-7.814948e-17
-3.417433e-17
-9.540762e-18
8.814110e-21
7.877989e-20
6.550997e-20
3.555901e-20
1.532243e-20
6.558962e-21
2.841030e-21
1.253854e-21
5.343637e-22
2.237954e-22
5.751060e-23
-7.457043e-25
-1.712697e-25
-1.629266e-25
-8.712207e-26
-2.805558e-26
-5.163017e-27
-1.776896e-27
-1.161313e-27
-1.002806e-27
-6.529610e-28
-3.894846e-28
-1.952934e-28
1.000000e+00
1.000000e+00
1.000000e+00
1.000000e+00
1.000000e+00
1.000000e+00
1.000002e+00
9.999850e-01
9.999894e-01
9.999091e-01
9.962434e-01
9.802272e-01
9.386601e-01
8.558823e-01
7.276296e-01
5.149743e-01
4.022636e-01
2.167058e-01
1.189629e-01
5.367895e-02
2.137929e-02
7.329913e-03
2.221444e-03
7.171429e-04
3.161205e-04
1.409343e-04
6.344329e-05
2.801872e-05
1.254226e-05
5.688432e-06
2.722903e-06
8.898586e-07
1.280338e-07
2.414697e-08
2.175411e-08
1.747309e-08
9.375809e-09
2.539623e-09
2.674399e-10
1.845929e-10
9.196462e-11
4.100730e-11
2.997586e-11
1.868070e-11
8.761654e-12
3.859081e-12
1.226433e-12
8.166951e-14
-9.843142e-15
2.292286e-15
2.911032e-15
2.227302e-15
1.104745e-15
3.286906e-16
-4.417448e-17
-3.923768e-17
-2.945891e-17
-1.652909e-17
-7.163186e-18
-3.052040e-18
-1.291947e-18
-5.469944e-19
-2.353681e-19
-8.634814e-20
-1.768929e-20
8.807013e-22
3.943616e-22
2.453958e-22
1.250058e-22
5.626622e-23
2.500730e-23
1.086999e-23
4.389431e-24
1.515702e-24
4.343573e-25
1.044845e-25
2.219145e-26
4.523914e-27
8.297612e-28
1.991914e-28
1.000000e+00
1.000000e+00
1.000000e+00
1.000000e+00
1.000000e+00
1.000000e+00
1.000001e+00
9.999937e-01
9.999931e-01
9.999940e-01
9.996741e-01
9.947653e-01
9.763904e-01
9.334416e-01
8.475730e-01
7.249593e-01
5.158024e-01
4.044283e-01
2.191947e-01
1.311236e-01
6.148821e-02
2.461270e-02
8.061067e-03
1.877002e-03
2.943984e-04
1.288027e-04
5.358771e-05
2.653944e-05
1.157299e-05
4.908550e-06
2.756463e-06
2.234409e-06
1.221764e-06
3.077336e-07
2.090837e-08
1.260775e-08
1.392256e-08
9.785199e-09
5.134540e-09
2.425547e-09
9.212662e-10
1.863826e-10
1.937556e-11
1.860152e-11
9.064282e-12
3.946765e-12
3.080222e-12
1.846429e-12
7.521158e-13
1.486055e-13
1.332543e-15
1.319277e-15
7.337511e-16
8.227093e-16
4.997491e-16
2.106106e-16
8.294697e-17
2.901216e-17
9.235399e-18
2.444636e-18
3.499489e-19
-1.658583e-19
-1.958498e-19
-1.632866e-19
-1.015762e-19
-5.197029e-20
-2.251535e-20
-9.767365e-21
-4.229133e-21
-1.775453e-21
-5.018575e-22
-7.733077e-23
1.315950e-25
-2.901214e-24
-6.931842e-25
-5.373920e-26
-2.335184e-28
-1.992235e-27
-1.724395e-27
-6.289803e-28
1.000000e+00
1.000000e+00
1.000000e+00
1.000000e+00
1.000000e+00
1.000000e+00
1.000000e+00
9.999985e-01
9.999947e-01
9.999955e-01
9.999975e-01
9.992723e-01
9.929687e-01
9.723745e-01
9.301630e-01
8.318548e-01
7.228153e-01
5.194610e-01
4.070792e-01
2.222504e-01
1.367860e-01
6.855649e-02
3.012961e-02
1.133730e-02
3.474731e-03
9.695426e-04
4.661806e-04
2.295294e-04
1.149724e-04
4.153731e-05
8.501620e-06
2.219482e-06
1.877206e-06
1.370128e-06
6.102265e-07
1.385736e-07
1.004201e-08
9.439474e-09
4.191414e-09
2.259214e-09
1.842263e-09
1.177807e-09
5.704790e-10
2.683481e-10
9.883763e-11
1.408189e-11
2.494255e-12
1.335042e-12
1.050740e-12
8.265566e-13
3.999732e-13
1.450707e-13
1.899788e-14
7.605367e-16
2.514861e-16
1.749955e-16
1.349482e-17
-3.947332e-17
-2.507376e-17
-7.836657e-18
-1.972193e-18
-6.089781e-19
-2.183616e-19
-1.389803e-19
-8.595264e-20
-5.264104e-20
-2.029055e-20
-9.907727e-21
-4.139132e-21
-2.645895e-21
-1.592302e-21
-7.520948e-22
-3.055769e-22
-2.487592e-23
8.785055e-25
2.245567e-24
1.230332e-24
5.376318e-25
1.515484e-25
2.252248e-27
1.000000e+00
1.000000e+00
1.000000e+00
1.000000e+00
1.000000e+00
1.000000e+00
1.000000e+00
1.000000e+00
9.999974e-01
9.999959e-01
9.999980e-01
9.999387e-01
9.989839e-01
9.902089e-01
9.711738e-01
9.209818e-01
8.231278e-01
7.195331e-01
5.218140e-01
4.078158e-01
2.280725e-01
1.365678e-01
6.946728e-02
3.121542e-02
1.174143e-02
3.396065e-03
5.688111e-04
2.259950e-04
1.217450e-04
9.827736e-05
5.550601e-05
1.600494e-05
1.975099e-06
1.273783e-06
1.042685e-06
6.967515e-07
3.576621e-07
1.675831e-07
6.382428e-08
1.139761e-08
1.061101e-09
6.729264e-10
4.692971e-10
2.734974e-10
2.109066e-10
1.259489e-10
6.028207e-11
2.031807e-11
2.028269e-12
6.134465e-13
3.614809e-13
2.973025e-13
1.901954e-13
8.658233e-14
3.806938e-14
1.686989e-14
7.443554e-15
3.258560e-15
1.422383e-15
6.452730e-16
2.013424e-16
6.937722e-18
-2.248111e-20
-8.496067e-19
-5.384984e-19
-2.834545e-19
-1.466228e-19
-6.600642e-20
-1.993683e-20
-2.647888e-21
-1.511473e-21
-6.877872e-22
-4.076244e-22
-3.177474e-22
-1.865506e-22
-9.541787e-23
-2.453611e-23
6.579211e-25
3.679679e-25
2.181283e-25
1.000000e+00
1.000000e+00
1.000000e+00
1.000000e+00
1.000000e+00
1.000000e+00
1.000000e+00
1.000000e+00
9.999995e-01
9.999972e-01
9.999974e-01
9.999741e-01
1.000001e+00
9.975006e-01
9.896401e-01
9.671460e-01
9.134633e-01
8.160226e-01
7.166212e-01
5.214862e-01
4.107400e-01
2.331552e-01
1.463029e-01
7.657645e-02
3.642200e-02
1.522272e-02
5.261603e-03
1.320531e-03
2.942994e-04
1.028806e-04
8.153727e-05
6.075447e-05
2.974944e-05
7.882529e-06
9.299299e-07
6.402291e-07
3.263949e-07
1.656403e-07
1.276301e-07
8.148680e-08
3.904043e-08
1.852270e-08
6.426269e-09
8.936469e-10
2.270371e-10
1.228016e-10
6.443244e-11
4.904085e-11
3.007704e-11
1.164569e-11
1.990810e-12
2.902182e-13
1.792976e-13
7.524251e-14
1.521828e-14
1.166492e-14
4.969021e-15
6.725909e-16
1.346030e-15
6.965949e-16
5.307536e-16
3.081054e-16
1.395315e-16
5.932349e-17
2.620018e-17
9.311371e-18
8.978631e-19
-6.291848e-20
-7.116526e-20
-3.793967e-20
-1.166890e-20
-1.887469e-21
-2.979804e-22
-3.167419e-22
-1.859560e-22
-9.732501e-23
-8.284229e-23
-4.841228e-23
-2.084523e-23
-8.717761e-24
1.000000e+00
1.000000e+00
1.000000e+00
1.000000e+00
1.000000e+00
1.000000e+00
1.000000e+00
1.000000e+00
1.000000e+00
9.999985e-01
9.999987e-01
9.999872e-01
9.999962e-01
9.996069e-01
9.969223e-01
9.879425e-01
9.629638e-01
9.062154e-01
8.112343e-01
7.119501e-01
5.210360e-01
4.143245e-01
2.385178e-01
1.468634e-01
7.669610e-02
3.694242e-02
1.603927e-02
5.933982e-03
1.814386e-03
4.302642e-04
8.731951e-05
5.999526e-05
4.608755e-05
3.059119e-05
1.496748e-05
5.777530e-06
2.615475e-06
7.983682e-07
1.419306e-07
8.046220e-08
3.887893e-08
1.883689e-08
1.490216e-08
9.080731e-09
4.434595e-09
1.444611e-09
1.460609e-10
4.662507e-11
2.946036e-11
2.290673e-11
1.465287e-11
7.087692e-12
3.251964e-12
1.472124e-12
6.937640e-13
3.130597e-13
1.413074e-13
6.705719e-14
2.207509e-14
2.104198e-15
2.421610e-17
2.982985e-16
1.389319e-16
6.184784e-17
2.438273e-17
1.920014e-17
1.223792e-17
4.920581e-18
6.928185e-19
-2.568019e-20
-3.323500e-20
-1.897448e-20
-8.299907e-21
-3.795212e-21
-1.794326e-21
-4.373736e-22
-8.367496e-23
-4.509128e-23
-1.765933e-23
-8.087296e-24
1.000000e+00
1.000000e+00
1.000000e+00
1.000000e+00
1.000000e+00
1.000000e+00
1.000000e+00
1.000000e+00
1.000000e+00
9.999994e-01
9.999995e-01
9.999938e-01
9.999943e-01
9.999951e-01
9.993460e-01
9.961995e-01
9.859868e-01
9.586083e-01
8.993012e-01
8.088101e-01
7.066881e-01
5.196286e-01
4.154099e-01
2.428919e-01
1.590673e-01
8.337129e-02
4.027271e-02
1.765713e-02
6.897799e-03
2.330300e-03
6.578721e-04
1.580587e-04
5.729496e-05
3.589350e-05
2.295237e-05
1.081162e-05
4.283758e-06
2.757801e-06
1.556094e-06
7.455995e-07
3.019063e-07
7.276881e-08
1.325121e-08
7.671839e-09
4.425761e-09
3.566772e-09
2.201551e-09
8.369161e-10
1.511070e-10
1.436916e-11
1.444577e-11
7.214676e-12
2.316063e-12
1.280619e-12
7.160367e-13
2.337685e-13
1.440395e-13
6.903762e-14
5.418065e-14
3.279576e-14
1.549440e-14
6.751510e-15
3.095577e-15
1.202119e-15
1.698290e-16
2.043009e-17
1.194927e-17
9.609393e-18
6.105981e-18
3.114047e-18
1.399162e-18
6.231926e-19
1.866713e-19
-3.929495e-22
-2.035122e-21
-1.763203e-21
-9.844814e-22
-4.803159e-22
-2.292278e-22
-8.957879e-23
1.000000e+00
1.000000e+00
1.000000e+00
1.000000e+00
1.000000e+00
1.000000e+00
1.000000e+00
1.000000e+00
1.000000e+00
9.999998e-01
9.999998e-01
9.999981e-01
9.999945e-01
9.999947e-01
9.999328e-01
9.991110e-01
9.953310e-01
9.837932e-01
9.547017e-01
8.884979e-01
8.115130e-01
7.048978e-01
5.184418e-01
4.164651e-01
2.444161e-01
1.648757e-01
8.849219e-02
4.340789e-02
1.932490e-02
7.742335e-03
2.735069e-03
8.247745e-04
2.233713e-04
7.436082e-05
4.168261e-05
2.772259e-05
1.318312e-05
3.422519e-06
1.605206e-06
7.478791e-07
5.969396e-07
3.809704e-07
1.981557e-07
7.088932e-08
1.121189e-08
3.222183e-09
2.194400e-09
1.697245e-09
1.047141e-09
5.051418e-10
2.282249e-10
1.068957e-10
4.908963e-11
2.255637e-11
1.049945e-11
4.906140e-12
1.728662e-12
2.063044e-13
5.404361e-14
3.153651e-14
1.234484e-14
6.909683e-15
2.993507e-15
2.359023e-15
1.533740e-15
6.281424e-16
1.094779e-16
1.183449e-17
5.126480e-18
2.076268e-18
3.482887e-19
7.041056e-19
5.807243e-19
3.349240e-19
1.472685e-19
6.331079e-20
2.694434e-20
1.143081e-20
4.924342e-21
1.981052e-21
1.000000e+00
1.000000e+00
1.000000e+00
1.000000e+00
1.000000e+00
1.000000e+00
1.000000e+00
1.000000e+00
1.000000e+00
9.999999e-01
9.999998e-01
9.999998e-01
9.999968e-01
9.999957e-01
9.999974e-01
9.998367e-01
9.989934e-01
9.937573e-01
9.846016e-01
9.402939e-01
8.937558e-01
7.989665e-01
7.032385e-01
5.214010e-01
4.170331e-01
2.477634e-01
1.704492e-01
9.364072e-02
4.705639e-02
2.143380e-02
8.827003e-03
3.228385e-03
1.017754e-03
2.729644e-04
7.418780e-05
3.853394e-05
2.966987e-05
1.980058e-05
9.678602e-06
3.112895e-06
5.973911e-07
3.532860e-07
1.959760e-07
1.606354e-07
1.015488e-07
4.137573e-08
8.763898e-09
1.403474e-09
6.557944e-10
4.995841e-10
2.010632e-10
1.056630e-10
3.691257e-11
2.053698e-11
8.596734e-12
4.847795e-12
3.992101e-12
2.430297e-12
1.120233e-12
5.135511e-13
2.462377e-13
1.001238e-13
1.569368e-14
2.194419e-15
1.459952e-15
1.166791e-15
7.618869e-16
3.680525e-16
1.667197e-16
7.886095e-17
2.693499e-17
1.985596e-18
5.646130e-19
3.280540e-19
6.143243e-21
1.762163e-20
6.866293e-21
2.601576e-21
1.808745e-21
1.325788e-21
1.000000e+00
1.000000e+00
1.000000e+00
1.000000e+00
1.000000e+00
1.000000e+00
1.000000e+00
1.000000e+00
1.000000e+00
1.000000e+00
9.999999e-01
9.999999e-01
9.999992e-01
9.999969e-01
9.999969e-01
9.999291e-01
9.999448e-01
9.969709e-01
9.968375e-01
9.755327e-01
9.436131e-01
8.871502e-01
7.906625e-01
7.010045e-01
5.218580e-01
4.173308e-01
2.502584e-01
1.743519e-01
9.761092e-02
5.030851e-02
2.348339e-02
9.959725e-03
3.815524e-03
1.292391e-03
3.718315e-04
8.471958e-05
2.943785e-05
1.971251e-05
1.467727e-05
9.867149e-06
5.132587e-06
1.948969e-06
5.460782e-07
1.506602e-07
9.743413e-08
7.786165e-08
5.014428e-08
2.500229e-08
1.184496e-08
5.563335e-09
2.615754e-09
1.213622e-09
5.705937e-10
2.738306e-10
9.704574e-11
1.499259e-11
4.064274e-12
1.873844e-12
1.061082e-12
4.434646e-13
2.471130e-13
1.874865e-13
1.250168e-13
5.034146e-14
9.128902e-15
8.466304e-16
4.927370e-16
3.277901e-16
1.271153e-16
7.658705e-17
6.480840e-17
3.988412e-17
1.834378e-17
8.467224e-18
4.015181e-18
1.797893e-18
7.939689e-19
3.503325e-19
1.550601e-19
7.016295e-20
1.000000e+00
1.000000e+00
1.000000e+00
1.000000e+00
1.000000e+00
1.000000e+00
1.000000e+00
1.000000e+00
1.000000e+00
1.000000e+00
1.000000e+00
9.999999e-01
9.999999e-01
9.999984e-01
9.999989e-01
9.999680e-01
1.000016e+00
9.986158e-01
9.987026e-01
9.924970e-01
9.749393e-01
9.412273e-01
8.823160e-01
7.836391e-01
6.994080e-01
5.243954e-01
4.205652e-01
2.545667e-01
1.790087e-01
1.014372e-01
5.355386e-02
2.549111e-02
1.100721e-02
4.339599e-03
1.568125e-03
5.148239e-04
1.487557e-04
4.581485e-05
1.938564e-05
1.196246e-05
7.933453e-06
4.330063e-06
2.384094e-06
1.169293e-06
4.221645e-07
8.471446e-08
4.639511e-08
2.302058e-08
1.013591e-08
5.289739e-09
2.527772e-09
1.124929e-09
5.280019e-10
2.734083e-10
2.229766e-10
1.365688e-10
6.586125e-11
2.981098e-11
1.425889e-11
6.432294e-12
1.425635e-12
2.093730e-13
1.179275e-13
9.769828e-14
6.245147e-14
3.043643e-14
1.384054e-14
6.514978e-15
2.200981e-15
2.269007e-16
5.408544e-17
3.650175e-17
9.606096e-18
6.544228e-18
3.631295e-18
7.440882e-19
5.422945e-19
2.251673e-19
1.510095e-19
6.975706e-20
1.000000e+00
1.000000e+00
1.000000e+00
1.000000e+00
1.000000e+00
1.000000e+00
1.000000e+00
1.000000e+00
1.000000e+00
1.000000e+00
1.000000e+00
1.000000e+00
1.000000e+00
9.999993e-01
9.999995e-01
9.999853e-01
9.999956e-01
9.993929e-01
9.993795e-01
9.979757e-01
9.905556e-01
9.730916e-01
9.372892e-01
8.797067e-01
7.715008e-01
6.917888e-01
5.232425e-01
4.221652e-01
2.585638e-01
1.840166e-01
1.048567e-01
5.702698e-02
2.784600e-02
1.221231e-02
4.835018e-03
1.744910e-03
5.789577e-04
1.839674e-04
6.110572e-05
2.393655e-05
1.261758e-05
7.812700e-06
3.663368e-06
1.704116e-06
1.128002e-06
6.853169e-07
3.356205e-07
1.696131e-07
8.890098e-08
4.352703e-08
2.114838e-08
1.060035e-08
4.253794e-09
9.401238e-10
2.342828e-10
1.164803e-10
6.688314e-11
2.524362e-11
1.381071e-11
6.875078e-12
5.908860e-12
2.722907e-12
4.958702e-13
8.816093e-14
2.561911e-14
2.676135e-14
1.092428e-14
6.369087e-15
5.313729e-15
3.259287e-15
1.523927e-15
6.983938e-16
3.265579e-16
1.509563e-16
7.011219e-17
3.255597e-17
1.461555e-17
6.821650e-18
2.177218e-18
3.119228e-19
1.000000e+00
1.000000e+00
1.000000e+00
1.000000e+00
1.000000e+00
1.000000e+00
1.000000e+00
1.000000e+00
1.000000e+00
1.000000e+00
1.000000e+00
1.000000e+00
1.000000e+00
9.999997e-01
9.999997e-01
9.999933e-01
9.999999e-01
9.997718e-01
9.995577e-01
9.994739e-01
9.970027e-01
9.892873e-01
9.704855e-01
9.338207e-01
8.782923e-01
7.661846e-01
6.869031e-01
5.219603e-01
4.232781e-01
2.619667e-01
1.899613e-01
1.067944e-01
5.993725e-02
3.037032e-02
1.380214e-02
5.617849e-03
2.051235e-03
6.804064e-04
2.146780e-04
7.160381e-05
2.706723e-05
1.350500e-05
9.716217e-06
4.382707e-06
1.348199e-06
7.020996e-07
3.301883e-07
1.504520e-07
8.314823e-08
3.790534e-08
2.014935e-08
1.074870e-08
8.586508e-09
5.438352e-09
2.798151e-09
1.331981e-09
6.487116e-10
3.085625e-10
1.039358e-10
2.151196e-11
5.936142e-12
5.552792e-12
3.748938e-12
1.853664e-12
8.826437e-13
4.214370e-13
1.485648e-13
1.944625e-14
5.169821e-15
3.144008e-15
1.295423e-15
6.927543e-16
1.680844e-16
1.029732e-16
5.948623e-17
2.365486e-17
9.388236e-18
6.758884e-18
5.658992e-18
2.879487e-18
1.000000e+00
1.000000e+00
1.000000e+00
1.000000e+00
1.000000e+00
1.000000e+00