# vtk DataFile Version 3.0
MUSCL
ASCII
DATASET STRUCTURED_POINTS
DIMENSIONS 80 80 1
ORIGIN 0 0 0
SPACING 0.0125 0.0125 1
POINT_DATA 6400
SCALARS Temperature double 1
LOOKUP_TABLE default
0.000000e+00
-6.740015e-01
-1.939399e-01
-2.456304e-02
-3.487021e-04
2.650161e-05
1.119820e-06
-4.226452e-07
-2.504617e-07
-1.002720e-07
-3.922706e-08
-1.547175e-08
-6.492614e-09
-3.045102e-09
-1.083086e-09
-1.881239e-10
4.597810e-12
1.660932e-12
1.233017e-12
4.656642e-13
2.543156e-13
1.043069e-13
4.051465e-14
1.583514e-14
6.284859e-15
2.494801e-15
9.699267e-16
3.645084e-16
1.331023e-16
4.649629e-17
1.140646e-17
2.002512e-18
2.237286e-19
-4.828916e-20
-1.834190e-20
1.263122e-20
9.719421e-21
3.037692e-21
2.089249e-21
9.030090e-22
1.137903e-23
-7.988776e-25
-3.541219e-24
-2.965110e-24
-1.544546e-24
-7.903150e-25
-3.957189e-25
-1.939305e-25
-9.157957e-26
-4.105198e-26
-1.734594e-26
-6.894383e-27
-2.621068e-27
-4.584425e-28
4.159482e-30
2.967074e-30
1.950035e-30
8.370562e-31
3.565865e-31
1.563437e-31
6.624985e-32
2.618099e-32
1.009039e-32
1.025032e-33
-5.808792e-35
-2.059870e-35
-8.872850e-36
-2.723862e-36
-5.725072e-38
2.778241e-38
8.317369e-39
5.017824e-39
2.256877e-39
8.360028e-40
2.498151e-40
5.960729e-41
1.246386e-41
9.109548e-42
8.574819e-42
8.530626e-42
1.325998e+00
6.740015e-01
1.939399e-01
2.456304e-02
3.487021e-04
-2.650161e-05
-1.119820e-06
4.226452e-07
2.504617e-07
1.002720e-07
3.922706e-08
1.547175e-08
6.492614e-09
3.045102e-09
1.083086e-09
1.881239e-10
-4.597810e-12
-1.660932e-12
-1.233017e-12
-4.656642e-13
-2.543156e-13
-1.043069e-13
-4.051465e-14
-1.583514e-14
-6.284859e-15
-2.494801e-15
-9.699267e-16
-3.645084e-16
-1.331023e-16
-4.649629e-17
-1.140646e-17
-2.002512e-18
-2.237286e-19
4.828916e-20
1.834190e-20
-1.263122e-20
-9.719421e-21
-3.037692e-21
-2.089249e-21
-9.030090e-22
-1.137903e-23
7.988776e-25
3.541219e-24
2.965110e-24
1.544546e-24
7.903150e-25
3.957189e-25
1.939305e-25
9.157957e-26
4.105198e-26
1.734594e-26
6.894383e-27
2.621068e-27
4.584425e-28
-4.159482e-30
-2.967074e-30
-1.950035e-30
-8.370562e-31
-3.565865e-31
-1.563437e-31
-6.624985e-32
-2.618099e-32
-1.009039e-32
-1.025032e-33
5.808792e-35
2.059870e-35
8.872850e-36
2.723862e-36
5.725072e-38
-2.778241e-38
-8.317369e-39
-5.017824e-39
-2.256877e-39
-8.360028e-40
-2.498151e-40
-5.960729e-41
-1.246386e-41
-9.109548e-42
-8.574819e-42
-8.530626e-42
1.041935e+00
9.580653e-01
5.984941e-01
2.397944e-01
5.880217e-02
3.888267e-03
2.225418e-07
-5.617430e-05
-2.836835e-05
-1.098497e-05
-3.987137e-06
-1.442232e-06
-5.221919e-07
-1.091875e-07
3.041711e-09
1.510740e-09
8.313183e-10
2.978161e-10
3.315188e-11
-1.534272e-12
-2.827866e-14
1.115850e-12
5.609270e-13
2.632655e-13
1.323799e-13
6.239025e-14
2.576416e-14
8.065641e-15
6.327463e-16
-5.955100e-17
-4.323599e-17
-2.099931e-17
-9.325772e-18
-4.106236e-18
-1.679941e-18
-4.271634e-19
-1.842593e-20
-1.066399e-21
-1.804699e-21
-2.177359e-21
-2.014115e-21
-1.084912e-21
-6.015990e-22
-3.287567e-22
-1.741425e-22
-8.798672e-23
-4.241560e-23
-1.955146e-23
-8.679565e-24
-3.321615e-24
-1.036873e-24
-2.422568e-25
9.081865e-27
3.273522e-27
1.424143e-27
4.968166e-28
1.975596e-28
8.678661e-29
3.933239e-29
1.773345e-29
7.840058e-30
3.401593e-30
4.942611e-31
7.242470e-33
-4.415081e-33
-1.833923e-33
-7.521090e-34
-1.023140e-34
1.192155e-36
2.484560e-36
1.157947e-36
4.501211e-37
1.547426e-37
4.632447e-38
1.206903e-38
2.670008e-39
6.196680e-40
6.179879e-40
8.132487e-40
8.080770e-40
9.998923e-01
1.000108e+00
8.872400e-01
5.935938e-01
2.706622e-01
8.402022e-02
1.629568e-02
1.205198e-03
4.696445e-04
2.036392e-04
7.594513e-05
8.768537e-06
-5.111212e-07
-5.041406e-07
-2.720982e-07
-1.045068e-07
-5.201924e-09
9.293147e-10
3.869434e-10
1.968321e-10
2.994193e-11
5.018647e-13
2.419985e-13
2.417797e-13
-5.378458e-14
2.676304e-14
2.292501e-14
8.354840e-15
1.732482e-15
2.599070e-15
1.025844e-15
2.016772e-16
-1.287461e-17
-4.581947e-18
-2.244523e-18
-1.226999e-18
-6.882133e-19
-3.403633e-19
-7.949315e-20
-1.993311e-21
-1.042787e-21
-4.978393e-22
-5.091238e-22
9.742900e-23
-4.950384e-23
-3.405705e-23
-1.931889e-23
-1.749037e-23
-8.013129e-24
-5.674199e-24
-3.365523e-24
-1.723272e-24
-7.756260e-25
-2.898707e-25
-1.077199e-25
-4.082933e-26
-1.631904e-26
-6.854340e-27
-2.909102e-27
-1.192599e-27
-3.322452e-28
-7.177900e-31
2.946548e-30
2.052030e-30
7.302353e-31
2.236122e-31
3.946830e-32
1.090778e-33
-3.922979e-34
-2.389238e-34
-9.249521e-35
-3.119147e-35
-9.226260e-36
-2.416707e-36
-5.685759e-37
-1.196467e-37
-2.695638e-38
-2.367958e-38
-3.341839e-38
-3.320632e-38
9.999122e-01
1.000088e+00
9.864230e-01
8.524039e-01
5.808955e-01
2.961540e-01
9.864841e-02
2.181969e-02
6.245734e-04
1.740299e-04
1.378214e-04
9.818354e-05
4.115761e-05
7.012324e-06
-2.563779e-07
-2.354340e-07
-1.556703e-07
-4.350638e-08
1.170812e-10
2.182958e-10
2.082411e-10
1.060365e-10
4.503685e-11
1.787623e-11
5.889761e-12
1.286502e-12
2.461284e-13
1.371855e-13
4.885105e-14
1.548916e-14
5.209380e-15
1.922772e-15
7.057209e-16
2.067225e-16
5.174522e-17
1.060916e-17
1.746619e-18
-1.933769e-19
-2.699414e-19
-1.630302e-19
-8.467153e-20
-4.784072e-20
-2.756937e-20
-1.555740e-20
-8.465118e-21
-4.397559e-21
-2.165868e-21
-7.849919e-22
-9.767659e-23
1.006414e-23
4.809711e-26
-4.640023e-25
-3.066521e-25
-2.008941e-25
2.415928e-25
1.092531e-25
1.274290e-26
-3.095990e-27
-3.361791e-27
-2.214039e-27
-1.307025e-27
-6.788493e-28
-2.828950e-28
-1.142138e-28
-3.849486e-29
-7.974081e-30
-4.141537e-31
5.207109e-32
4.955014e-32
2.057354e-32
7.474656e-33
2.406098e-33
6.881179e-34
1.758054e-34
4.051104e-35
8.503766e-36
1.711244e-36
7.676195e-37
1.018404e-36
9.990399e-37
9.999722e-01
1.000028e+00
1.000127e+00
9.656633e-01
8.296305e-01
5.645736e-01
3.365901e-01
1.267632e-01
3.477677e-02
2.581034e-03
8.681002e-05
7.555559e-05
6.902412e-05
4.906518e-05
2.083999e-05
3.486045e-06
-2.695524e-07
-1.572340e-07
-9.447937e-08
-4.093668e-08
-1.719995e-08
-7.108173e-09
-1.878859e-09
-5.864361e-12
9.000549e-12
7.075711e-12
2.686275e-12
2.302182e-13
4.550280e-14
9.905782e-15
2.716385e-15
6.946256e-16
-4.946908e-18
-1.403276e-16
-1.174944e-16
-3.165588e-17
2.233688e-18
9.180203e-19
3.384195e-19
-2.058691e-20
-6.688775e-20
3.132644e-20
5.976320e-21
-9.385128e-21
-6.571877e-21
-4.152387e-21
-2.736386e-21
-2.058351e-21
-1.282873e-21
-6.228238e-22
-2.845576e-22
-1.260427e-22
-5.395040e-23
-2.254697e-23
-9.615198e-24
-3.984972e-24
-1.328396e-24
-1.338193e-25
1.489700e-27
1.987325e-27
-4.402046e-28
-3.673020e-28
-1.923744e-28
-1.030463e-28
6.821138e-29
-2.213051e-30
-2.000893e-30
-7.081027e-30
-3.287843e-30
-1.175486e-30
-3.814812e-31
-1.099109e-31
-2.814182e-32
-6.492718e-33
-1.375156e-33
-2.712192e-34
-6.246687e-35
-3.691568e-35
-2.614716e-35
4.703774e-37
9.999947e-01
1.000005e+00
1.000044e+00
9.984254e-01
9.483555e-01
8.109396e-01
5.426509e-01
3.576954e-01
1.478970e-01
5.005522e-02
9.562893e-03
6.791649e-05
1.808284e-05
4.079559e-05
3.853447e-05
2.537724e-05
1.252448e-05
5.276460e-06
2.184778e-06
8.287848e-07
1.141256e-07
-9.348450e-09
-5.718965e-09
-3.105370e-09
-6.538559e-10
1.389778e-11
4.856143e-12
3.388325e-12
1.535546e-12
6.657612e-13
2.746528e-13
1.174609e-13
4.416570e-14
1.830555e-14
1.529880e-15
-1.280136e-16
-1.095908e-16
-5.990301e-17
-2.750673e-17
-1.300277e-17
-6.369298e-18
-3.127575e-18
-1.562051e-18
-7.828570e-19
-3.558052e-19
-1.118478e-19
-3.171881e-21
-1.477469e-21
-1.105516e-21
-5.738815e-22
8.214123e-23
-5.307528e-23
-4.655531e-23
-1.560174e-23
-5.574854e-24
-3.439296e-24
-2.636019e-24
-1.646218e-24
-7.585766e-25
-3.322048e-25
-1.414604e-25
-5.841083e-26
-2.260229e-26
-7.929605e-27
-2.666896e-27
-6.996284e-28
-1.110496e-28
-2.340117e-30
3.154586e-30
1.152691e-30
3.620595e-31
8.459282e-32
1.166776e-32
1.923704e-33
1.417618e-33
9.806343e-34
5.082514e-34
1.145974e-34
-2.303454e-35
-3.547082e-35
9.999972e-01
1.000003e+00
1.000007e+00
9.999550e-01
9.920126e-01
9.349496e-01
7.949949e-01
5.168327e-01
3.729101e-01
1.555169e-01
5.828848e-02
1.569105e-02
2.122680e-03
3.598336e-05
3.599984e-05
2.543613e-05
1.233011e-05
5.239287e-06
2.191226e-06
1.225389e-06
8.908833e-07
3.483503e-07
3.411690e-08
-2.201239e-09
-3.003130e-09
-1.631678e-09
-6.949846e-10
-3.018106e-10
-1.326512e-10
-5.958540e-11
-2.334393e-11
-4.750634e-12
1.780136e-13
3.611118e-14
2.255050e-14
1.135418e-14
5.741044e-15
2.876542e-15
1.395657e-15
6.545165e-16
2.996213e-16
1.358827e-16
5.801280e-17
1.051497e-17
-2.272448e-19
-3.450278e-19
-2.270978e-19
-1.050100e-19
-4.822804e-20
-2.181152e-20
-9.903172e-21
-4.410036e-21
-1.868491e-21
-8.159556e-22
-2.521631e-22
-1.572226e-23
-1.309577e-24
-9.054135e-25
-2.829918e-25
-1.780340e-25
-1.130050e-25
-5.809523e-26
-1.178644e-26
-4.349115e-27
-1.731697e-27
-5.004233e-28
-5.615463e-28
-4.460989e-28
-1.980614e-28
-7.727358e-29
-2.758403e-29
-8.998674e-30
-2.754511e-30
-8.408836e-31
-2.740820e-31
-6.624888e-32
-6.445499e-34
2.527534e-34
2.044248e-34
7.413074e-35
9.999991e-01
1.000001e+00
1.000001e+00
1.000033e+00
9.999310e-01
9.850371e-01
9.219235e-01
7.795772e-01
5.212591e-01
3.783951e-01
1.648725e-01
6.666274e-02
2.051554e-02
4.215451e-03
3.840168e-04
8.819070e-05
4.986254e-05
2.765800e-05
1.060259e-05
2.469781e-06
9.325298e-07
7.274582e-07
4.523938e-07
2.078073e-07
8.560180e-08
3.927422e-08
1.773479e-08
7.755656e-09
2.304045e-09
3.674605e-12
-3.778576e-11
-3.059094e-11
-1.526475e-11
-6.601596e-12
-2.881225e-12
-1.280007e-12
-5.743562e-13
-2.582267e-13
-1.153211e-13
-5.229930e-14
-1.417732e-14
1.237488e-17
5.717971e-17
4.950904e-17
2.616456e-17
6.512953e-18
1.235712e-18
9.123071e-19
5.267353e-19
2.382691e-19
9.576301e-20
2.490139e-20
1.717986e-21
-9.007603e-22
-6.807495e-22
-3.854194e-22
-1.667942e-22
-6.207476e-23
-1.669817e-23
-2.106277e-24
1.593297e-25
3.056474e-26
-2.107978e-25
-2.025238e-25
-7.483721e-26
-1.519438e-26
-6.917603e-28
-2.767275e-28
-1.252828e-28
-7.207057e-29
3.445055e-30
-1.437584e-30
6.873271e-32
2.757505e-32
-1.574291e-31
-1.570431e-31
-1.059925e-31
-4.554961e-32
-2.026114e-32
-8.521397e-33
9.999998e-01
1.000000e+00
1.000000e+00
1.000018e+00
1.000016e+00
9.988944e-01
9.787288e-01
9.080575e-01
7.698987e-01
5.221613e-01
3.810184e-01
1.771821e-01
7.569670e-02
2.539432e-02
5.904297e-03
4.464094e-04
4.505807e-05
3.369185e-05
2.632622e-05
1.422527e-05
4.059581e-06
7.646809e-07
4.607199e-07
2.108498e-07
8.916294e-08
3.891315e-08
1.790154e-08
1.101496e-08
7.004721e-09
3.848340e-09
1.577088e-09
6.486917e-10
2.682232e-10
1.121268e-10
4.696557e-11
1.941285e-11
8.201656e-12
2.335337e-12
8.369895e-14
-5.697676e-14
-4.749936e-14
-2.518355e-14
-5.063259e-15
-3.879527e-17
4.455372e-17
2.670663e-17
8.219882e-18
9.614793e-19
1.719141e-19
1.034596e-19
8.695631e-20
6.919191e-20
3.821712e-20
1.534060e-20
5.162520e-21
1.113504e-21
-1.240980e-22
-1.145041e-22
-7.149847e-23
-3.850358e-23
-1.873676e-23
-7.985139e-24
-2.061576e-24
-3.851015e-25
-1.920195e-25
-9.629217e-26
-3.604750e-26
-1.383707e-26
-5.946601e-27
-2.425200e-27
-9.440603e-28
-3.323054e-28
-1.178676e-28
-2.927365e-29
-1.035192e-30
4.142796e-32
-3.616941e-32
-2.477477e-33
-6.015404e-33
-1.150257e-33
9.999999e-01
1.000000e+00
1.000000e+00
1.000003e+00
1.000014e+00
9.999948e-01
9.972377e-01
9.710243e-01
8.969576e-01
7.615546e-01
5.236542e-01
3.740719e-01
1.874811e-01
8.581099e-02
3.198401e-02
8.900579e-03
1.228832e-03
4.782739e-05
2.674567e-05
2.223139e-05
1.632560e-05
6.519221e-06
1.828465e-06
8.752255e-07
4.693110e-07
2.223775e-07
8.657123e-08
1.306020e-08
5.326497e-09
2.778155e-09
1.504785e-09
6.555697e-10
2.721520e-10
1.122200e-10
3.408817e-11
1.849565e-11
7.648910e-12
6.148270e-12
3.214835e-12
8.428213e-13
-5.188019e-14
-3.789302e-14
-2.827741e-14
-1.268276e-14
-2.097458e-15
4.712873e-17
3.144573e-17
1.997992e-17
9.720704e-18
4.693691e-18
8.532430e-19
3.484576e-20
2.754768e-20
1.457482e-20
7.968140e-21
3.895052e-21
1.672913e-21
5.066325e-22
1.465004e-22
2.081510e-23
-1.117089e-23
-1.198631e-23
-8.458021e-24
-2.480147e-24
-1.937117e-25
-9.704429e-26
-3.130314e-26
-1.195521e-26
-5.920476e-27
-1.204325e-27
-6.254645e-28
-2.681156e-28
-1.604142e-28
-8.999097e-29
-4.456413e-29
-1.559232e-29
-6.416707e-30
-2.877259e-30
-1.340910e-30
-5.590313e-31
1.000000e+00
1.000000e+00
1.000000e+00
1.000000e+00
1.000007e+00
1.000009e+00
9.999772e-01
9.941835e-01
9.638893e-01
8.861407e-01
7.588960e-01
5.118902e-01
3.893271e-01
1.921380e-01
9.242745e-02
3.722901e-02
1.170110e-02
2.329773e-03
6.304148e-05
2.058738e-05
1.702462e-05
1.389709e-05
6.773024e-06
1.392606e-06
4.494589e-07
3.161705e-07
2.337699e-07
1.479117e-07
7.335739e-08
3.684199e-08
1.687364e-08
8.018876e-09
3.740425e-09
1.726214e-09
8.207876e-10
2.701824e-10
3.902642e-11
5.213277e-12
4.681082e-12
3.188165e-12
1.732738e-12
4.320792e-13
-2.454695e-14
-2.137180e-14
-1.471963e-14
-7.320386e-15
-3.233624e-15
-8.712549e-16
1.186413e-17
5.766336e-18
4.581439e-18
2.554160e-18
8.246464e-19
2.228628e-20
-1.123207e-20
-2.217443e-21
-1.594920e-22
1.055727e-22
1.567015e-22
8.066726e-23
2.057752e-23
-8.495017e-24
-1.085415e-23
-8.157616e-24
-3.999160e-24
-1.976754e-24
-7.336658e-25
-2.987907e-25
-1.242610e-25
-5.312075e-26
-1.975040e-26
-4.608229e-27
-2.604552e-28
-8.669775e-29
-4.512021e-29
-6.405157e-30
-5.904288e-31
-1.566674e-30
-1.350438e-30
-9.405280e-31
1.000000e+00
1.000000e+00
1.000000e+00
1.000000e+00
1.000002e+00
1.000006e+00
1.000005e+00
9.997547e-01
9.914881e-01
9.548801e-01
8.817892e-01
7.454165e-01
5.159138e-01
3.938308e-01
1.987019e-01
9.897081e-02
4.203536e-02
1.457339e-02
3.648405e-03
3.456858e-04
2.102892e-05
1.658535e-05
1.386169e-05
9.826510e-06
3.409166e-06
3.824929e-07
2.132721e-07
1.094897e-07
7.003592e-08
3.135558e-08
1.496378e-08
8.006802e-09
3.165217e-09
1.711520e-09
7.944850e-10
6.555831e-10
3.659996e-10
9.651941e-11
3.436443e-12
2.558893e-12
1.994210e-12
1.492079e-12
8.013300e-13
3.211941e-13
1.015402e-13
4.656692e-15
-3.652173e-15
-2.866166e-15
-1.564572e-15
-6.989442e-16
-2.136575e-16
-8.433776e-18
2.645698e-18
1.567826e-18
6.923405e-19
2.989879e-19
7.824134e-20
1.133426e-21
-8.894288e-22
-2.319971e-22
-1.476702e-22
-6.215333e-23
-1.202674e-23
-8.214994e-24
-4.020463e-24
-2.010165e-24
-6.391637e-25
-3.072396e-25
-8.962884e-26
-5.175607e-26
-3.527719e-26
-2.029532e-26
-9.157912e-27
-3.495190e-27
-1.469477e-27
-5.541858e-28
-2.351128e-28
-8.823537e-29
-1.291854e-29
-1.043509e-30
1.000000e+00
1.000000e+00
1.000000e+00
1.000000e+00
1.000000e+00
1.000002e+00
1.000006e+00
9.999138e-01
9.998923e-01
9.863740e-01
9.508761e-01
8.715572e-01
7.384418e-01
5.161616e-01
3.972399e-01
2.052622e-01
1.052730e-01
4.645659e-02
1.749973e-02
5.037549e-03
6.039111e-04
3.056900e-05
9.461238e-06
9.761634e-06
8.592245e-06
5.392778e-06
2.641309e-06
1.320301e-06
6.364508e-07
3.141265e-07
1.499123e-07
7.125797e-08
3.588272e-08
1.388370e-08
3.120964e-09
6.544467e-10
5.455998e-10
4.008650e-10
1.870858e-10
4.165804e-11
2.541083e-12
1.185720e-12
4.883784e-13
3.093936e-13
2.164255e-13
1.273352e-13
5.556428e-14
2.272966e-14
5.939613e-15
-6.862404e-16
-5.614971e-16
-3.208177e-16
-1.495938e-16
-4.101039e-17
-3.443684e-19
3.194751e-19
2.449353e-19
1.292218e-19
4.745714e-20
1.283020e-20
3.162667e-24
-1.718587e-22
-1.373958e-22
-7.472570e-23
-3.906117e-23
-1.986860e-23
-9.331236e-24
-4.226251e-24
-1.512800e-24
-3.461854e-25
-1.977509e-26
-1.717051e-26
-8.082295e-27
-9.323154e-28
-5.680421e-28
-4.078052e-28
-1.540352e-28
-1.650270e-28
-1.136124e-28
-4.965380e-29
1.000000e+00
1.000000e+00
1.000000e+00
1.000000e+00
1.000000e+00
1.000000e+00
1.000004e+00
9.999644e-01
9.999680e-01
9.977229e-01
9.838925e-01
9.447241e-01
8.634895e-01
7.326382e-01
5.157841e-01
4.002516e-01
2.116566e-01
1.117955e-01
5.063270e-02
2.045348e-02
7.067516e-03
1.766118e-03
2.194263e-04
2.123310e-06
6.312748e-06
-2.101826e-07
2.302829e-06
1.085571e-06
6.008558e-07
1.958086e-07
1.219646e-07
4.934371e-08
3.382861e-08
2.911744e-08
1.771278e-08
5.927720e-09
5.966568e-10
3.452429e-10
3.038721e-10
2.045558e-10
1.000717e-10
4.587964e-11
1.788691e-11
2.769901e-12
4.324648e-14
1.177687e-13
2.931371e-14
2.082501e-14
1.681987e-14
9.904143e-15
3.476503e-15
3.075891e-16
-1.397780e-16
-1.303061e-16
-7.499774e-17
-3.432071e-17
-9.530082e-18
-1.238780e-20
1.550133e-19
7.093054e-20
3.123937e-20
1.337604e-20
5.942581e-21
2.635294e-21
1.188165e-21
4.275105e-22
6.803120e-23
-5.247307e-24
-3.896120e-24
-2.280581e-24
-1.073527e-24
-4.571959e-25
-1.956454e-25
-8.608820e-26
-3.750877e-26
-1.485060e-26
-2.479896e-27
-1.714570e-29
-1.051717e-28
-8.002219e-29
1.000000e+00
1.000000e+00
1.000000e+00
1.000000e+00
1.000000e+00
1.000000e+00
1.000002e+00
9.999851e-01
9.999911e-01
9.999197e-01
9.963091e-01
9.802667e-01
9.386800e-01
8.558963e-01
7.276483e-01
5.150157e-01
4.023261e-01
2.168012e-01
1.190674e-01
5.377684e-02
2.144571e-02
7.366804e-03
2.235990e-03
7.115634e-04
3.067838e-04
1.405070e-04
6.272280e-05
2.830259e-05
1.272846e-05
5.726653e-06
2.691254e-06
8.871502e-07
1.210568e-07
3.017241e-08
2.360719e-08
1.808611e-08
9.689230e-09
2.672303e-09
2.793408e-10
1.593135e-10
9.464626e-11
4.282070e-11
3.508351e-11
2.155085e-11
9.793720e-12
4.355895e-12
1.405748e-12
1.082814e-13
3.332498e-15
7.225684e-15
6.322690e-15
3.980595e-15
1.995049e-15
6.618662e-16
1.093680e-17
-3.399463e-17
-3.063983e-17
-1.749222e-17
-7.634421e-18
-3.324899e-18
-1.443626e-18
-6.240259e-19
-2.748823e-19
-1.021497e-19
-1.191600e-20
2.877776e-22
5.219195e-22
3.018180e-22
1.307217e-22
5.523876e-23
2.364775e-23
1.037900e-23
4.417019e-24
1.155573e-24
-9.784678e-27
-2.522163e-26
-1.809812e-26
-7.437259e-27
-1.199458e-27
-5.823253e-30
1.000000e+00
1.000000e+00
1.000000e+00
1.000000e+00
1.000000e+00
1.000000e+00
1.000001e+00
9.999936e-01
9.999933e-01
1.000002e+00
9.996756e-01
9.947704e-01
9.763946e-01
9.334484e-01
8.475858e-01
7.249845e-01
5.158565e-01
4.045046e-01
2.193023e-01
1.312481e-01
6.159212e-02
2.467996e-02
8.100732e-03
1.893469e-03
3.313063e-04
1.277915e-04
5.768531e-05
2.924302e-05
1.067355e-05
4.754665e-06
2.706932e-06
2.211363e-06
1.224947e-06
3.198713e-07
2.326002e-08
1.422407e-08
1.388724e-08
1.017998e-08
5.361164e-09
2.531419e-09
9.931812e-10
2.087040e-10
2.898347e-11
1.786639e-11
9.691212e-12
4.422105e-12
3.450380e-12
2.056948e-12
8.300240e-13
1.661715e-13
1.176103e-16
3.596392e-15
1.930418e-15
1.372088e-15
8.557487e-16
4.007263e-16
1.540775e-16
5.639219e-17
1.991967e-17
6.490449e-18
1.762897e-18
2.406696e-19
-1.455773e-19
-1.565095e-19
-1.211408e-19
-5.954555e-20
-2.575131e-20
-1.086969e-20
-4.437195e-21
-1.788514e-21
-6.510701e-22
-1.197931e-22
6.397263e-24
4.088738e-24
2.479348e-24
6.895544e-25
-5.254388e-27
-1.181189e-26
-9.194013e-27
-4.429870e-27
1.000000e+00
1.000000e+00
1.000000e+00
1.000000e+00
1.000000e+00
1.000000e+00
1.000000e+00
9.999984e-01
9.999947e-01
9.999956e-01
9.999892e-01
9.992573e-01
9.929626e-01
9.723710e-01
9.301652e-01
8.318607e-01
7.228339e-01
5.195149e-01
4.071578e-01
2.223655e-01
1.369165e-01
6.865692e-02
3.019768e-02
1.138435e-02
3.504916e-03
9.760177e-04
4.609714e-04
2.288703e-04
1.152845e-04
4.122725e-05
8.009375e-06
2.075182e-06
1.806605e-06
1.333770e-06
5.985290e-07
1.343123e-07
1.268931e-08
8.990075e-09
3.697606e-09
2.375579e-09
1.922870e-09
1.236774e-09
6.047036e-10
2.920255e-10
1.006143e-10
1.503225e-11
3.072681e-12
1.606967e-12
1.259868e-12
9.334542e-13
4.518631e-13
1.628137e-13
2.120407e-14
-5.288272e-16
5.514388e-16
3.315822e-16
5.832832e-17
2.595242e-18
9.181866e-18
6.132662e-18
7.114606e-19
-1.300071e-18
-7.845740e-19
-1.513669e-19
-9.252239e-20
-6.091990e-20
-2.390972e-20
-1.012132e-20
-3.489770e-21
-1.223874e-21
-1.130862e-21
-6.866369e-22
-3.219652e-22
-6.929398e-23
2.100125e-24
1.904476e-24
1.260120e-24
5.684058e-25
2.319223e-25
8.043711e-26
1.000000e+00
1.000000e+00
1.000000e+00
1.000000e+00
1.000000e+00
1.000000e+00
1.000000e+00
1.000000e+00
9.999971e-01
9.999961e-01
9.999974e-01
9.999398e-01
9.989829e-01
9.901802e-01
9.711329e-01
9.209538e-01
8.231174e-01
7.195374e-01
5.218588e-01
4.078849e-01
2.281946e-01
1.366877e-01
6.955655e-02
3.129690e-02
1.176098e-02
3.386465e-03
5.573849e-04
2.326274e-04
1.225654e-04
9.926924e-05
5.518470e-05
1.564625e-05
1.814207e-06
1.223264e-06
1.000021e-06
6.787347e-07
3.548424e-07
1.674168e-07
6.363114e-08
1.122532e-08
1.587520e-09
1.034440e-09
4.940016e-10
2.846654e-10
2.321634e-10
1.406953e-10
6.603641e-11
2.139504e-11
1.689550e-12
7.025959e-13
4.510739e-13
3.387621e-13
2.137139e-13
9.903358e-14
4.384572e-14
1.950608e-14
8.581787e-15
3.779959e-15
1.650499e-15
7.434947e-16
2.294685e-16
7.265503e-18
-3.103496e-18
-1.723073e-18
-8.969854e-19
-4.675128e-19
-2.291872e-19
-1.107734e-19
-5.409769e-20
-1.828876e-20
-1.460446e-21
-3.992964e-22
-4.615416e-22
-3.056030e-22
-1.575489e-22
-6.726010e-23
-2.503263e-23
-3.531058e-24
1.478206e-25
1.770793e-25
1.000000e+00
1.000000e+00
1.000000e+00
1.000000e+00
1.000000e+00
1.000000e+00
1.000000e+00
1.000000e+00
9.999994e-01
9.999973e-01
9.999976e-01
9.999736e-01
9.999990e-01
9.975139e-01
9.896524e-01
9.671465e-01
9.134541e-01
8.160037e-01
7.166112e-01
5.215163e-01
4.108180e-01
2.332774e-01
1.464085e-01
7.668364e-02
3.647044e-02
1.521512e-02
5.242104e-03
1.340088e-03
2.949812e-04
1.021362e-04
8.420908e-05
6.278652e-05
2.994849e-05
7.963914e-06
9.650973e-07
5.183497e-07
3.492292e-07
1.706358e-07
1.263683e-07
8.040519e-08
3.887282e-08
1.838813e-08
6.774933e-09
1.067591e-09
1.398344e-10
9.647449e-11
6.580933e-11
5.405426e-11
3.377232e-11
1.309441e-11
2.247559e-12
2.923759e-13
1.497548e-13
3.787203e-14
2.874499e-14
1.391809e-14
7.764228e-15
3.527961e-15
9.668554e-16
6.909149e-16
5.867797e-16
3.402183e-16
1.526567e-16
6.536996e-17
2.742269e-17
1.158024e-17
3.928124e-18
4.041232e-19
-5.625907e-20
-4.754598e-20
-2.871343e-20
-8.674449e-21
-4.682199e-22
-2.194628e-22
-1.249070e-22
-4.974845e-23
-4.224069e-23
-2.987186e-23
-1.539123e-23
-5.856442e-24
1.000000e+00
1.000000e+00
1.000000e+00
1.000000e+00
1.000000e+00
1.000000e+00
1.000000e+00
1.000000e+00
1.000000e+00
9.999985e-01
9.999989e-01
9.999867e-01
9.999891e-01
9.996202e-01
9.969423e-01
9.879508e-01
9.629558e-01
9.061905e-01
8.112041e-01
7.119334e-01
5.210833e-01
4.144222e-01
2.386353e-01
1.469906e-01
7.678253e-02
3.696567e-02
1.603103e-02
5.927303e-03
1.810110e-03
4.379676e-04
9.250638e-05
6.191730e-05
4.740997e-05
3.155295e-05
1.518262e-05
5.963451e-06
2.589627e-06
7.906454e-07
1.411048e-07
6.938771e-08
3.353900e-08
1.743291e-08
1.479447e-08
9.133363e-09
4.443461e-09
1.578256e-09
1.876231e-10
3.510887e-11
3.202278e-11
2.647204e-11
1.652707e-11
7.745883e-12
3.515869e-12
1.624441e-12
7.380866e-13
3.372838e-13
1.531012e-13
7.245412e-14
2.469334e-14
2.475422e-15
5.866330e-16
1.654298e-16
1.420104e-16
6.399508e-17
2.453990e-17
9.991477e-18
8.139035e-18
5.039553e-18
1.641432e-18
1.028136e-20
-4.041046e-20
-2.709468e-20
-1.458499e-20
-6.197544e-21
-2.747638e-21
-8.049957e-22
-4.078484e-23
-1.762632e-23
-1.119086e-23
-1.220972e-24
1.000000e+00
1.000000e+00
1.000000e+00
1.000000e+00
1.000000e+00
1.000000e+00
1.000000e+00
1.000000e+00
1.000000e+00
9.999994e-01
9.999994e-01
9.999939e-01
9.999925e-01
9.999898e-01
9.993513e-01
9.962123e-01
9.859828e-01
9.585858e-01
8.992638e-01
8.087745e-01
7.066854e-01
5.197011e-01
4.155057e-01
2.430159e-01
1.591660e-01
8.341922e-02
4.028181e-02
1.765378e-02
6.892108e-03
2.330696e-03
6.579135e-04
1.652325e-04
6.028043e-05
3.742235e-05
2.364768e-05
1.112401e-05
4.411597e-06
2.886853e-06
1.520562e-06
7.236170e-07
3.000161e-07
7.323978e-08
1.166219e-08
8.975211e-09
4.858755e-09
3.778163e-09
2.288672e-09
8.809113e-10
1.498516e-10
2.173278e-11
1.440675e-11
5.073197e-12
2.923126e-12
1.480334e-12
4.530989e-13
2.278807e-13
1.099865e-13
6.954310e-14
5.897986e-14
3.581154e-14
1.624236e-14
7.377929e-15
3.403361e-15
1.586895e-15
5.639383e-16
8.992529e-17
5.111622e-18
5.617242e-18
4.361379e-18
2.392700e-18
1.000810e-18
4.106839e-19
1.394097e-19
1.147974e-20
-2.530124e-21
-2.492447e-21
-1.405866e-21
-6.388230e-22
-3.052337e-22
-1.227663e-22
1.000000e+00
1.000000e+00
1.000000e+00
1.000000e+00
1.000000e+00
1.000000e+00
1.000000e+00
1.000000e+00
1.000000e+00
9.999998e-01
9.999998e-01
9.999983e-01
9.999940e-01
9.999953e-01
9.999349e-01
9.991147e-01
9.953254e-01
9.837757e-01
9.546768e-01
8.884751e-01
8.115046e-01
7.049290e-01
5.185269e-01
4.165772e-01
2.445260e-01
1.649443e-01
8.852112e-02
4.341486e-02
1.932248e-02
7.738645e-03
2.730597e-03
8.257498e-04
2.247765e-04
7.524880e-05
4.215417e-05
2.777358e-05
1.297773e-05
3.070620e-06
1.392056e-06
6.788934e-07
5.692440e-07
3.688523e-07
1.930217e-07
6.817226e-08
1.062828e-08
3.289152e-09
2.311032e-09
1.758279e-09
1.098489e-09
5.213365e-10
2.378524e-10
1.096623e-10
4.996581e-11
2.336057e-11
1.077521e-11
5.201896e-12
1.785674e-12
2.139671e-13
5.697918e-14
3.336748e-14
9.611848e-15
6.182404e-15
2.435439e-15
1.611831e-15
1.243549e-15
7.162668e-16
2.195218e-16
8.419910e-18
3.176629e-18
1.987864e-18
2.575148e-20
3.732282e-19
2.782356e-19
1.715192e-19
7.998777e-20
3.316593e-20
1.345758e-20
5.391627e-21
2.121965e-21
8.127091e-22
1.000000e+00
1.000000e+00
1.000000e+00
1.000000e+00
1.000000e+00
1.000000e+00
1.000000e+00
1.000000e+00
1.000000e+00
9.999999e-01
9.999998e-01
9.999998e-01
9.999969e-01
9.999954e-01
9.999952e-01
9.998321e-01
9.989839e-01
9.937387e-01
9.845715e-01
9.402476e-01
8.937149e-01
7.989600e-01
7.032732e-01
5.214909e-01
4.171407e-01
2.478527e-01
1.705042e-01
9.366877e-02
4.706656e-02
2.143455e-02
8.823422e-03
3.226813e-03
1.018065e-03
2.735894e-04
7.434291e-05
3.781855e-05
2.915539e-05
1.950554e-05
9.214620e-06
2.943157e-06
5.795714e-07
3.733622e-07
1.959175e-07
1.574775e-07
9.952716e-08
4.048880e-08
8.809916e-09
1.258556e-09
8.814017e-10
5.219810e-10
2.380288e-10
1.135976e-10
4.556293e-11
2.356344e-11
8.552866e-12
5.273319e-12
4.261862e-12
2.579112e-12
1.190081e-12
5.464266e-13
2.518320e-13
1.195302e-13
4.105753e-14
6.787235e-15
1.029775e-15
9.602485e-16
7.114017e-16
3.765748e-16
1.612679e-16
7.064923e-17
2.707163e-17
4.412411e-18
2.164128e-19
1.595544e-19
1.689359e-20
2.248212e-20
1.324690e-20
5.687470e-21
-1.285437e-21
-8.185847e-22
1.000000e+00
1.000000e+00
1.000000e+00
1.000000e+00
1.000000e+00
1.000000e+00
1.000000e+00
1.000000e+00
1.000000e+00
1.000000e+00
9.999999e-01
9.999999e-01
9.999991e-01
9.999966e-01
9.999988e-01
9.999250e-01
9.999156e-01
9.969008e-01
9.968172e-01
9.755350e-01
9.436231e-01
8.871522e-01
7.906634e-01
7.010253e-01
5.219224e-01
4.174058e-01
2.503219e-01
1.743932e-01
9.763546e-02
5.031875e-02
2.348539e-02
9.960157e-03
3.816914e-03
1.294412e-03
3.732093e-04
8.513646e-05
2.949552e-05
1.959435e-05
1.462541e-05
9.813735e-06
5.081454e-06
1.909950e-06
5.388227e-07
1.663704e-07
9.953023e-08
7.756669e-08
4.984910e-08
2.536620e-08
1.210071e-08
5.758597e-09
2.744547e-09
1.297356e-09
5.864559e-10
3.007429e-10
1.048813e-10
1.582436e-11
3.338306e-12
1.261757e-12
1.175844e-12
5.092861e-13
2.256680e-13
1.181275e-13
9.747070e-14
5.475955e-14
1.599700e-14
7.087516e-16
6.972050e-16
1.871506e-16
1.329205e-16
7.138150e-17
5.115541e-17
3.177139e-17
1.446569e-17
6.343748e-18
2.771289e-18
1.224182e-18
5.386978e-19
2.423823e-19
1.056353e-19
4.549917e-20
1.000000e+00
1.000000e+00
1.000000e+00
1.000000e+00
1.000000e+00
1.000000e+00
1.000000e+00
1.000000e+00
1.000000e+00
1.000000e+00
1.000000e+00
9.999999e-01
9.999999e-01
9.999982e-01
9.999984e-01
9.999668e-01
9.999681e-01
9.986286e-01
9.987172e-01
9.924522e-01
9.748882e-01
9.411905e-01
8.822941e-01
7.836398e-01
6.994260e-01
5.244412e-01
4.206145e-01
2.546064e-01
1.790316e-01
1.014508e-01
5.355893e-02
2.549303e-02
1.100996e-02
4.343975e-03
1.572388e-03
5.187143e-04
1.531164e-04
4.650565e-05
1.920101e-05
1.183284e-05
7.844307e-06
4.238168e-06
2.329238e-06
1.161803e-06
4.328566e-07
8.035454e-08
4.653149e-08
2.163986e-08
1.210867e-08
5.722138e-09
2.793008e-09
1.321923e-09
5.935254e-10
3.017533e-10
2.401914e-10
1.467384e-10
6.924598e-11
3.263056e-11
1.494312e-11
7.172101e-12
2.439290e-12
4.326982e-13
9.087029e-14
8.207538e-14
5.768381e-14
3.100993e-14
1.377227e-14
6.488569e-15
2.415163e-15
4.151072e-16
1.706565e-17
1.235414e-17
1.106859e-17
5.808813e-18
9.238702e-19
4.979791e-19
2.985947e-19
1.748603e-19
1.057133e-19
4.482678e-20
1.000000e+00
1.000000e+00
1.000000e+00
1.000000e+00
1.000000e+00
1.000000e+00
1.000000e+00
1.000000e+00
1.000000e+00
1.000000e+00
1.000000e+00
1.000000e+00
1.000000e+00
9.999992e-01
9.999994e-01
9.999850e-01
9.999918e-01
9.993791e-01
9.993843e-01
9.979502e-01
9.904843e-01
9.730330e-01
9.372577e-01
8.797039e-01
7.715186e-01
6.918146e-01
5.232767e-01
4.221941e-01
2.585812e-01
1.840205e-01
1.048568e-01
5.702475e-02
2.784571e-02
1.221647e-02
4.841790e-03
1.752366e-03
5.841701e-04
1.861921e-04
6.204022e-05
2.440184e-05
1.282480e-05
7.863928e-06
3.663303e-06
1.695601e-06
1.060735e-06
6.625630e-07
3.353085e-07
1.754900e-07
8.829256e-08
4.358524e-08
2.204223e-08
1.146171e-08
4.607299e-09
1.050182e-09
1.953781e-10
9.769634e-11
7.049319e-11
2.537688e-11
1.163204e-11
6.948547e-12
5.897954e-12
3.245978e-12
9.323311e-13
9.389515e-14
4.824942e-14
1.412426e-14
9.914913e-15
5.947744e-15
5.014331e-15
3.133398e-15
1.489051e-15
6.605036e-16
2.926669e-16
1.272600e-16
5.734235e-17
2.595000e-17
1.155539e-17
5.386780e-18
1.802620e-18
2.415028e-19
1.000000e+00
1.000000e+00
1.000000e+00
1.000000e+00
1.000000e+00
1.000000e+00
1.000000e+00
1.000000e+00
1.000000e+00
1.000000e+00
1.000000e+00
1.000000e+00
1.000000e+00
9.999996e-01
9.999997e-01
9.999932e-01
9.999949e-01
9.997665e-01
9.995507e-01
9.994381e-01
9.969511e-01
9.892344e-01
9.704443e-01
9.337999e-01
8.782975e-01
7.662092e-01
6.869280e-01
5.219818e-01
4.232894e-01
2.619659e-01
1.899494e-01
1.067820e-01
5.992923e-02
3.037020e-02
1.380889e-02
5.627690e-03
2.059867e-03
6.859599e-04
2.178571e-04
7.334650e-05
2.801345e-05
1.398699e-05
1.001450e-05
4.462900e-06
1.436405e-06
6.726124e-07
3.391848e-07
1.679943e-07
8.907587e-08
3.862033e-08
2.060138e-08
1.143694e-08
8.957724e-09
5.700282e-09
2.877090e-09
1.374137e-09
6.580919e-10
3.314971e-10
1.191622e-10
2.454984e-11
6.317968e-12
5.027754e-12
3.501093e-12
1.906513e-12
8.644237e-13
4.288499e-13
1.582652e-13
2.692210e-14
2.700707e-15
2.831041e-15
1.225086e-15
3.585573e-16
2.513119e-16
1.244602e-16
3.675582e-17
1.829309e-17
1.169159e-17
5.382632e-18
4.455713e-18
2.281357e-18
1.000000e+00
1.000000e+00
1.000000e+00
1.000000e+00
1.000000e+00
1.000000e+00
1.000000e+00