# vtk DataFile Version 3.0
MUSCL
ASCII
DATASET STRUCTURED_POINTS
DIMENSIONS 80 80 1
ORIGIN 0 0 0
SPACING 0.0125 0.0125 1
POINT_DATA 6400
SCALARS Temperature double 1
LOOKUP_TABLE default
0.000000e+00
-6.739991e-01
-1.939395e-01
-2.456643e-02
-3.507413e-04
1.553777e-05
3.197307e-08
-1.100250e-07
-1.062012e-07
-6.507898e-08
-3.310628e-08
-1.624692e-08
-7.954908e-09
-3.867839e-09
-1.675578e-09
-6.789252e-10
-4.083131e-11
1.714777e-12
1.637934e-12
2.173818e-13
-1.111993e-14
2.293635e-14
1.832672e-14
5.494465e-15
1.233222e-15
3.715093e-16
2.973008e-16
2.447214e-16
1.406814e-16
7.274790e-17
2.280423e-17
1.209859e-19
-4.336514e-19
-2.317820e-19
6.261445e-19
5.262654e-19
2.272679e-19
8.880522e-20
3.255672e-20
1.184280e-20
4.383471e-21
1.479943e-21
3.307475e-22
3.444033e-24
-3.347232e-24
-2.408076e-24
-1.123681e-24
-4.934501e-25
-2.060311e-25
-8.337832e-26
-3.296042e-26
-1.424263e-26
-1.420409e-27
2.086103e-28
6.692699e-29
3.174887e-29
1.097688e-29
3.630652e-30
1.218195e-30
4.437712e-31
1.804647e-31
7.976599e-32
2.938705e-32
6.776285e-33
-1.975791e-35
-3.034133e-35
-1.783491e-35
-8.606211e-36
-4.275175e-36
-2.069471e-36
-9.663308e-37
-4.339566e-37
-1.866884e-37
-7.685263e-38
-3.042962e-38
-1.160091e-38
-3.958657e-39
-5.572738e-41
2.406442e-41
1.426958e-41
1.326001e+00
6.739991e-01
1.939395e-01
2.456643e-02
3.507413e-04
-1.553777e-05
-3.197307e-08
1.100250e-07
1.062012e-07
6.507898e-08
3.310628e-08
1.624692e-08
7.954908e-09
3.867839e-09
1.675578e-09
6.789252e-10
4.083131e-11
-1.714777e-12
-1.637934e-12
-2.173818e-13
1.111993e-14
-2.293635e-14
-1.832672e-14
-5.494465e-15
-1.233222e-15
-3.715093e-16
-2.973008e-16
-2.447214e-16
-1.406814e-16
-7.274790e-17
-2.280423e-17
-1.209859e-19
4.336514e-19
2.317820e-19
-6.261445e-19
-5.262654e-19
-2.272679e-19
-8.880522e-20
-3.255672e-20
-1.184280e-20
-4.383471e-21
-1.479943e-21
-3.307475e-22
-3.444033e-24
3.347232e-24
2.408076e-24
1.123681e-24
4.934501e-25
2.060311e-25
8.337832e-26
3.296042e-26
1.424263e-26
1.420409e-27
-2.086103e-28
-6.692699e-29
-3.174887e-29
-1.097688e-29
-3.630652e-30
-1.218195e-30
-4.437712e-31
-1.804647e-31
-7.976599e-32
-2.938705e-32
-6.776285e-33
1.975791e-35
3.034133e-35
1.783491e-35
8.606211e-36
4.275175e-36
2.069471e-36
9.663308e-37
4.339566e-37
1.866884e-37
7.685263e-38
3.042962e-38
1.160091e-38
3.958657e-39
5.572738e-41
-2.406442e-41
-1.426958e-41
1.041958e+00
9.580422e-01
5.985528e-01
2.398180e-01
5.878296e-02
3.847142e-03
6.711657e-05
-2.481314e-05
-1.425579e-05
-7.836741e-06
-3.981685e-06
-1.878272e-06
-8.241072e-07
-2.101783e-07
1.542808e-09
1.140225e-09
8.517594e-10
3.194094e-10
1.600217e-11
-7.379902e-13
-1.118163e-12
-2.826536e-13
-6.331905e-15
-3.725722e-15
-8.947323e-16
-2.646696e-16
-1.958170e-16
5.433083e-17
-3.044614e-17
-7.731440e-17
-7.568166e-17
-4.545165e-17
-1.853784e-17
-8.464528e-18
-1.796266e-18
1.738459e-18
1.462512e-18
5.233556e-19
1.367478e-19
3.079465e-20
6.226605e-21
5.971747e-22
-1.814408e-22
-5.452696e-22
-4.372482e-22
-2.163281e-22
-1.053473e-22
-5.006351e-23
-2.340522e-23
-1.097923e-23
-4.684480e-24
-5.828622e-25
2.006388e-26
1.239338e-26
6.829946e-27
2.896797e-27
1.190252e-27
4.745994e-28
1.856346e-28
7.336303e-29
2.275383e-29
5.572981e-30
4.522023e-32
-2.709789e-32
-1.831736e-32
-8.320081e-33
-3.593299e-33
-1.534428e-33
-6.573121e-34
-2.836680e-34
-1.231187e-34
-5.324065e-35
-2.267356e-35
-9.457167e-36
-3.057068e-36
-6.798793e-37
-4.942349e-40
6.484658e-39
3.506551e-39
1.464867e-39
1.000268e+00
9.997316e-01
8.846229e-01
5.931842e-01
2.706247e-01
8.390726e-02
1.639026e-02
1.347152e-03
5.175408e-04
2.173215e-04
7.733770e-05
9.479294e-06
-1.311051e-06
-8.052116e-07
-4.785039e-07
-1.712089e-07
-1.111047e-08
1.428799e-09
5.326988e-10
2.015922e-10
-1.088374e-12
-6.548929e-13
-7.659169e-13
-3.427760e-13
-1.303858e-13
-6.705139e-14
-1.444676e-14
2.137341e-17
6.027028e-16
9.309399e-16
5.020146e-16
-4.721110e-17
-4.266542e-17
-3.094608e-17
-8.187466e-18
4.578289e-19
1.425783e-18
1.142022e-18
6.235290e-19
2.583894e-19
8.494309e-20
2.411324e-20
4.712385e-21
-1.582025e-22
-3.339839e-22
-1.705270e-22
-1.046289e-22
1.954512e-24
-1.644117e-24
-4.797757e-24
-4.161397e-24
-3.722126e-24
-2.467467e-24
-1.134944e-24
-5.019975e-25
-2.167172e-25
-9.107939e-26
-3.629432e-26
-1.073764e-26
-1.643309e-27
6.701765e-30
2.892105e-29
1.534461e-29
5.853705e-30
1.838888e-30
8.448076e-31
3.469445e-31
1.452282e-31
6.166512e-32
2.605261e-32
1.080640e-32
4.047753e-33
6.382809e-34
-7.400952e-36
-1.129174e-35
-5.681522e-36
-2.261530e-36
-7.440510e-37
-2.659778e-37
-1.135274e-37
9.999008e-01
1.000099e+00
9.863122e-01
8.523176e-01
5.808867e-01
2.960217e-01
9.884872e-02
2.202297e-02
7.507058e-04
1.823335e-04
1.393723e-04
9.157561e-05
4.027465e-05
7.032809e-06
-5.185654e-07
-3.599034e-07
-2.471301e-07
-6.918225e-08
-6.743088e-10
4.424977e-10
3.798201e-10
1.802541e-10
8.666795e-11
4.113811e-11
1.632493e-11
2.076141e-12
5.348863e-14
-4.444592e-14
-2.324714e-14
-3.410686e-15
4.165666e-16
9.189282e-16
6.132653e-16
3.025974e-16
1.544606e-16
5.318221e-17
7.372494e-18
3.936330e-19
4.071237e-19
2.039828e-19
3.849036e-20
-3.490508e-20
-4.487899e-20
-2.971644e-20
-1.574289e-20
-8.159078e-21
-4.050544e-21
-1.977806e-21
-9.321459e-22
-3.960319e-22
-6.800905e-23
-7.566049e-25
-2.056267e-24
-4.850322e-25
1.048401e-25
-6.974336e-26
-4.234968e-26
-4.347478e-26
-3.250322e-26
-1.722053e-26
-7.624487e-27
-2.764194e-27
-6.319946e-28
-1.783715e-29
5.937780e-30
-2.694306e-29
-2.249128e-29
-1.063205e-29
-4.255588e-30
-1.195660e-30
-1.710791e-31
2.153349e-32
6.929336e-33
3.041282e-33
9.659713e-34
3.035240e-34
9.958148e-35
3.536301e-35
1.372031e-35
3.935302e-36
9.999699e-01
1.000030e+00
1.000184e+00
9.653772e-01
8.296165e-01
5.645025e-01
3.365366e-01
1.268341e-01
3.491829e-02
2.676623e-03
1.347860e-05
7.281626e-05
6.404414e-05
4.573901e-05
1.947857e-05
3.079412e-06
-3.367213e-07
-2.192471e-07
-1.267375e-07
-5.505590e-08
-2.370697e-08
-1.037849e-08
-3.651789e-09
-1.554839e-10
1.553433e-11
1.863855e-11
1.054609e-11
2.520832e-12
-7.255972e-15
-1.266473e-14
-9.333401e-15
-3.269150e-15
-7.441073e-16
3.709327e-17
1.601847e-16
1.525773e-16
1.005360e-16
4.921066e-17
2.197901e-17
8.946440e-18
3.216680e-18
9.507283e-19
1.971899e-19
4.888076e-21
-9.814494e-21
-1.914214e-21
-2.794488e-21
-1.441323e-21
-8.538187e-22
-3.463177e-22
-2.897359e-22
-1.811239e-22
-9.057324e-23
-4.333879e-23
-1.975163e-23
-8.275189e-24
-1.998031e-24
-9.221380e-26
-2.419963e-26
-1.280193e-26
-7.388829e-27
-4.413386e-27
-2.587007e-27
-1.415891e-27
-4.002935e-28
-2.260155e-29
-2.161413e-29
-1.095602e-29
-7.144235e-30
-4.418198e-30
-2.389786e-30
-1.047679e-30
-4.109783e-31
-1.487149e-31
-5.075771e-32
-1.687424e-32
-5.758099e-33
-1.991123e-33
-2.982508e-34
-5.417888e-36
9.999950e-01
1.000005e+00
1.000031e+00
9.983824e-01
9.485529e-01
8.111200e-01
5.426812e-01
3.577464e-01
1.480538e-01
5.018880e-02
9.700621e-03
2.346762e-04
-1.246247e-05
3.966869e-05
3.405002e-05
2.213761e-05
1.121368e-05
4.680740e-06
1.958512e-06
7.658806e-07
1.396394e-07
-6.754224e-09
-7.821830e-09
-5.335067e-09
-1.466744e-09
4.890689e-14
1.091467e-11
8.910635e-12
4.761909e-12
2.106119e-12
9.504703e-13
4.339095e-13
1.525900e-13
2.375896e-14
-1.074328e-15
-2.952240e-16
-1.373513e-16
-4.412141e-17
-4.975258e-18
8.404651e-19
-3.812249e-19
-1.156814e-18
-1.052204e-18
-6.610283e-19
-3.893305e-19
-2.044026e-19
-1.031325e-19
-5.010360e-20
-2.065784e-20
-3.566493e-21
-1.834557e-22
-1.519266e-22
-8.646108e-23
-4.318172e-23
-1.241951e-23
-1.002726e-23
-8.027615e-24
-4.103155e-24
-1.686333e-24
-6.151334e-25
-1.364500e-25
-7.381914e-27
-1.720555e-27
-1.411182e-27
-1.140006e-27
-9.596017e-28
-4.620464e-28
-4.747195e-29
1.016818e-29
-2.386701e-30
-1.623035e-30
-1.051062e-30
2.483024e-32
3.316958e-32
-6.221268e-33
-3.562011e-33
-1.715117e-33
-1.794284e-33
-1.437019e-33
-7.601060e-34
9.999999e-01
1.000000e+00
1.000003e+00
1.000069e+00
9.920600e-01
9.348712e-01
7.949397e-01
5.168791e-01
3.730498e-01
1.556722e-01
5.841400e-02
1.608764e-02
2.169023e-03
1.187744e-04
2.915942e-05
2.132261e-05
1.140060e-05
4.784803e-06
1.920373e-06
1.122494e-06
8.168259e-07
3.404745e-07
4.745119e-08
-5.924549e-09
-4.607276e-09
-2.719169e-09
-1.191638e-09
-5.210868e-10
-2.269915e-10
-1.012351e-10
-3.575561e-11
-3.613669e-12
3.817249e-13
2.111849e-13
1.019041e-13
4.260728e-14
1.753475e-14
7.280715e-15
3.051299e-15
1.279252e-15
5.333661e-16
2.204384e-16
9.168641e-17
2.651757e-17
7.089560e-18
2.513254e-18
7.189223e-19
1.285503e-19
-5.048115e-21
-1.805681e-20
-1.100246e-20
-4.995100e-21
-2.312299e-21
-1.019575e-21
-2.944563e-22
-1.437741e-23
-7.489733e-24
-4.789952e-24
-2.782182e-24
-1.527194e-24
-8.010515e-25
-3.612358e-25
-9.626165e-26
-3.707555e-27
-7.721676e-29
-7.462101e-28
-9.783369e-28
-9.147495e-28
-4.876537e-28
-2.343856e-28
-1.089093e-28
-4.873742e-29
-2.039372e-29
-8.042823e-30
-2.833147e-30
-7.138599e-31
-4.320245e-32
-2.449473e-33
-3.864945e-34
-4.883377e-34
9.999996e-01
1.000000e+00
9.999998e-01
1.000031e+00
9.999183e-01
9.849151e-01
9.217828e-01
7.795058e-01
5.213269e-01
3.785198e-01
1.650475e-01
6.666653e-02
2.046510e-02
4.230104e-03
3.814069e-04
8.177567e-05
4.867071e-05
2.606712e-05
9.488921e-06
2.160902e-06
8.522380e-07
6.685123e-07
4.122512e-07
1.983757e-07
8.341417e-08
3.410482e-08
1.377924e-08
5.770428e-09
1.603242e-09
-7.640848e-11
-7.158905e-11
-4.639589e-11
-2.203963e-11
-9.401097e-12
-3.941006e-12
-1.643865e-12
-6.873155e-13
-2.895138e-13
-1.232824e-13
-5.316133e-14
-1.355575e-14
2.121791e-16
1.116148e-16
6.695559e-17
2.220443e-17
3.007866e-18
8.165078e-19
2.626247e-19
6.411979e-20
9.991229e-21
1.171008e-21
-2.501883e-21
-2.373812e-21
-1.662470e-21
-1.095081e-21
-5.275073e-22
-1.130457e-22
-7.139552e-24
-5.126748e-25
-4.138379e-25
-5.036656e-25
-3.229328e-25
-2.702689e-25
-1.506441e-25
-5.821139e-26
-1.303687e-26
-6.579706e-28
-7.839738e-28
-1.487471e-28
-1.873117e-28
-9.682934e-29
-4.282645e-29
-1.713905e-29
-8.175422e-30
-4.905442e-30
-2.751187e-30
-1.326327e-30
-4.807339e-31
-1.569515e-31
-5.228449e-32
9.999997e-01
1.000000e+00
1.000000e+00
1.000011e+00
1.000011e+00
9.988523e-01
9.786401e-01
9.079517e-01
7.698205e-01
5.221964e-01
3.810798e-01
1.771381e-01
7.563567e-02
2.536529e-02
5.910897e-03
4.520887e-04
2.470466e-05
3.107810e-05
2.489249e-05
1.324028e-05
3.763763e-06
6.938488e-07
4.188068e-07
2.101725e-07
8.588432e-08
3.128799e-08
1.230479e-08
5.477211e-09
4.415430e-09
2.506966e-09
1.040125e-09
4.258615e-10
1.748054e-10
7.242376e-11
3.021333e-11
1.259012e-11
5.459706e-12
1.504730e-12
-8.043093e-14
-6.384387e-14
-4.726373e-14
-2.341483e-14
-3.921454e-15
1.346823e-16
7.373520e-17
3.527193e-17
3.216012e-18
2.711422e-19
-6.367524e-20
-1.986082e-20
-7.435681e-22
1.179730e-21
9.090826e-22
-5.063645e-22
-9.024120e-22
-8.294252e-22
-5.580561e-22
-3.091419e-22
-1.481524e-22
-6.767134e-23
-2.352239e-23
-3.015253e-24
-1.899764e-25
-1.417810e-25
-1.034935e-25
-6.767837e-26
-3.590612e-26
-1.940836e-26
-1.058800e-26
-5.522296e-27
-2.767025e-27
-1.097683e-27
-3.020994e-28
-1.293660e-29
-3.199513e-30
-1.748904e-30
-1.280150e-30
2.447569e-31
-1.129137e-31
-3.617964e-32
9.999999e-01
1.000000e+00
1.000000e+00
1.000001e+00
1.000011e+00
9.999928e-01
9.971688e-01
9.709346e-01
8.968966e-01
7.615614e-01
5.236498e-01
3.740674e-01
1.874402e-01
8.578623e-02
3.198452e-02
8.903939e-03
1.245326e-03
2.352772e-05
2.483882e-05
2.117014e-05
1.541556e-05
6.723517e-06
1.863472e-06
6.226063e-07
3.866152e-07
2.099929e-07
9.255563e-08
2.437892e-08
3.757368e-09
2.500619e-09
9.344848e-10
4.259460e-10
1.750143e-10
6.993313e-11
1.398332e-11
9.329598e-12
4.872741e-12
4.300650e-12
2.465545e-12
5.276198e-13
-4.629530e-14
-3.923749e-14
-2.862196e-14
-1.118027e-14
-1.203857e-15
7.650401e-17
5.496230e-17
2.641444e-17
1.120647e-17
4.884290e-18
8.012200e-19
-1.737404e-20
-1.934661e-20
-9.985338e-21
-3.302046e-21
-8.577100e-22
-5.237028e-22
-3.115543e-22
-1.495327e-22
-6.782821e-23
-2.509099e-23
-1.806435e-23
-8.647864e-24
-1.434287e-24
-2.782906e-26
-4.776285e-26
-1.313480e-26
-4.745844e-27
-4.656852e-27
-3.544829e-27
-2.750229e-27
-2.110089e-27
-1.354701e-27
-7.530921e-28
-3.024250e-28
-1.170835e-28
-4.516880e-29
-1.772296e-29
-6.487459e-30
-2.472303e-30
1.000000e+00
1.000000e+00
1.000000e+00
1.000000e+00
1.000006e+00
1.000008e+00
9.999740e-01
9.941318e-01
9.638272e-01
8.861162e-01
7.588597e-01
5.118826e-01
3.892996e-01
1.920971e-01
9.239953e-02
3.721258e-02
1.169179e-02
2.289955e-03
6.131285e-05
1.872014e-05
1.577127e-05
1.279291e-05
7.133950e-06
2.031481e-06
3.758696e-07
2.093297e-07
1.680906e-07
1.102342e-07
5.798266e-08
2.656845e-08
1.249580e-08
5.954219e-09
2.791050e-09
1.265876e-09
6.149690e-10
2.027687e-10
2.644307e-11
4.130585e-12
3.115828e-12
2.353842e-12
1.202108e-12
2.340297e-13
-2.206224e-14
-2.292759e-14
-1.502434e-14
-7.033596e-15
-3.126566e-15
-8.297940e-16
9.806219e-18
5.630387e-18
4.418299e-18
2.351749e-18
8.317364e-19
6.563537e-20
-1.493269e-21
-4.938387e-21
-2.723372e-21
-1.358861e-21
-7.107062e-22
-2.773783e-22
-9.941369e-23
-2.847760e-23
-1.487681e-23
-1.149622e-23
-5.528315e-24
-2.485956e-24
-1.090857e-24
-4.909244e-25
-2.276968e-25
-9.741909e-26
-2.241214e-26
-2.225133e-27
-6.102921e-28
-4.780939e-28
-3.017248e-28
-1.080445e-28
-1.069471e-29
-6.743780e-30
-5.535583e-30
-3.423944e-30
1.000000e+00
1.000000e+00
1.000000e+00
1.000000e+00
1.000002e+00
1.000005e+00
1.000009e+00
9.997343e-01
9.914358e-01
9.548236e-01
8.817371e-01
7.454018e-01
5.158993e-01
3.937946e-01
1.986589e-01
9.893672e-02
4.200777e-02
1.454734e-02
3.634183e-03
3.419284e-04
1.833363e-05
1.520625e-05
1.260442e-05
9.250765e-06
3.929948e-06
7.970871e-07
1.424629e-07
7.214925e-08
5.888687e-08
2.499224e-08
1.026196e-08
5.889218e-09
2.383438e-09
1.016774e-09
5.984537e-10
4.898877e-10
2.776742e-10
7.361101e-11
4.366241e-12
2.035839e-12
1.618743e-12
1.213509e-12
6.378927e-13
2.720280e-13
8.828434e-14
2.706918e-15
-3.711185e-15
-2.822770e-15
-1.587371e-15
-7.090418e-16
-2.255306e-16
-1.928022e-17
1.133682e-18
1.390036e-18
6.897573e-19
2.914175e-19
6.176739e-20
-1.112154e-21
-9.580468e-22
-7.415010e-22
-3.571147e-22
-1.297589e-22
-2.624136e-23
-1.106239e-23
-5.407499e-24
-2.534263e-24
-7.915268e-25
-4.477440e-25
-1.968109e-25
-1.140854e-25
-9.708439e-26
-5.573221e-26
-2.727547e-26
-1.300474e-26
-5.698806e-27
-2.382787e-27
-1.058020e-27
-3.734206e-28
-6.975649e-29
-1.271913e-30
1.000000e+00
1.000000e+00
1.000000e+00
1.000000e+00
1.000000e+00
1.000001e+00
1.000006e+00
9.999039e-01
9.998440e-01
9.863342e-01
9.508486e-01
8.715444e-01
7.384249e-01
5.161215e-01
3.972004e-01
2.052271e-01
1.052369e-01
4.641568e-02
1.746643e-02
5.019849e-03
6.035747e-04
4.069880e-06
8.685314e-06
9.322098e-06
7.945820e-06
5.114285e-06
2.507704e-06
1.182174e-06
5.682272e-07
2.655261e-07
1.243628e-07
5.911870e-08
2.924010e-08
1.171218e-08
2.481204e-09
5.370307e-10
4.179410e-10
3.076178e-10
1.442897e-10
3.082754e-11
1.171797e-12
1.062269e-12
2.824578e-13
2.311370e-13
1.925995e-13
1.172291e-13
5.302368e-14
2.200687e-14
5.723876e-15
-6.749857e-16
-5.744223e-16
-3.383402e-16
-1.589569e-16
-4.641799e-17
4.221297e-19
3.073271e-19
2.623521e-19
1.493005e-19
5.326680e-20
2.502227e-21
-3.663820e-22
-4.050178e-22
-2.290133e-22
-1.040184e-22
-4.937273e-23
-2.523642e-23
-1.235642e-23
-5.891322e-24
-2.135834e-24
-2.600644e-25
-6.643152e-26
-3.031917e-26
-2.541783e-26
-1.105796e-26
-4.510400e-27
-2.315169e-27
-1.035307e-27
-7.325497e-28
-4.260955e-28
-2.091372e-28
1.000000e+00
1.000000e+00
1.000000e+00
1.000000e+00
1.000000e+00
1.000000e+00
1.000004e+00
9.999610e-01
1.000001e+00
9.977024e-01
9.838695e-01
9.447073e-01
8.634681e-01
7.325982e-01
5.157500e-01
4.002322e-01
2.116299e-01
1.117486e-01
5.058118e-02
2.041609e-02
7.032973e-03
1.760530e-03
2.316998e-04
7.751806e-06
-3.966625e-06
1.238471e-06
1.249379e-06
9.783174e-07
9.185475e-08
1.546331e-07
8.900350e-08
5.718135e-08
2.832628e-08
2.368543e-08
1.448122e-08
4.959007e-09
5.028084e-10
2.674866e-10
2.261011e-10
1.564319e-10
7.747420e-11
3.634732e-11
1.353110e-11
1.908609e-12
5.195419e-14
8.584469e-14
5.270702e-14
2.200319e-14
1.672531e-14
9.475688e-15
3.344946e-15
4.132708e-16
-1.567787e-16
-1.350356e-16
-7.699476e-17
-3.421720e-17
-9.546569e-18
-7.281132e-20
8.905695e-20
7.364148e-20
3.512953e-20
1.518972e-20
6.374740e-21
2.690847e-21
1.159393e-21
3.994029e-22
6.605222e-23
-5.791382e-24
-5.075828e-24
-3.193189e-24
-1.545334e-24
-7.406221e-25
-3.509747e-25
-1.648303e-25
-7.708290e-26
-2.649093e-26
-3.949768e-27
-4.767218e-28
-4.091951e-28
-2.658943e-28
1.000000e+00
1.000000e+00
1.000000e+00
1.000000e+00
1.000000e+00
1.000000e+00
1.000002e+00
9.999849e-01
9.999969e-01
9.999840e-01
9.962418e-01
9.802290e-01
9.386757e-01
8.558891e-01
7.276359e-01
5.150077e-01
4.023154e-01
2.167588e-01
1.190024e-01
5.371656e-02
2.139287e-02
7.378615e-03
2.251055e-03
7.081880e-04
3.175322e-04
1.406442e-04
6.297115e-05
2.813828e-05
1.269654e-05
5.681700e-06
2.672028e-06
8.585535e-07
1.097696e-07
2.004913e-08
1.826321e-08
1.483196e-08
8.090671e-09
2.220487e-09
2.046280e-10
1.255580e-10
7.576780e-11
3.653958e-11
2.884716e-11
1.819490e-11
8.500445e-12
3.963794e-12
1.292475e-12
9.100773e-14
-8.395587e-15
6.732195e-15
5.698882e-15
3.584298e-15
1.819927e-15
5.729951e-16
6.014747e-18
-3.790734e-17
-2.988608e-17
-1.682373e-17
-7.320513e-18
-3.158198e-18
-1.367499e-18
-5.918502e-19
-2.574562e-19
-8.589327e-20
-9.654266e-21
9.440093e-22
5.271494e-22
2.609902e-22
1.058567e-22
4.366709e-23
1.830937e-23
7.847122e-24
2.831793e-24
4.919586e-25
-6.368055e-26
-6.216847e-26
-3.854642e-26
-1.756577e-26
-4.577964e-27
-2.356967e-28
1.000000e+00
1.000000e+00
1.000000e+00
1.000000e+00
1.000000e+00
1.000000e+00
1.000001e+00
9.999939e-01
9.999941e-01
9.999945e-01
9.996789e-01
9.947776e-01
9.764160e-01
9.334753e-01
8.476137e-01
7.250104e-01
5.158611e-01
4.044813e-01
2.192333e-01
1.311589e-01
6.151541e-02
2.465177e-02
8.093482e-03
1.888856e-03
3.408769e-04
1.276230e-04
5.192338e-05
2.548296e-05
1.009179e-05
4.645423e-06
2.603123e-06
2.173693e-06
1.209303e-06
3.001644e-07
1.893423e-08
1.480970e-08
1.140897e-08
8.292540e-09
4.310127e-09
2.041306e-09
7.892738e-10
1.527180e-10
2.614108e-11
1.691087e-11
7.742341e-12
3.876235e-12
3.136251e-12
1.913576e-12
8.588353e-13
1.997867e-13
8.994237e-15
-2.393919e-15
1.165200e-15
1.158563e-15
7.159022e-16
3.145454e-16
1.148964e-16
3.773041e-17
1.115362e-17
2.607613e-18
1.882734e-19
-2.958689e-19
-2.884617e-19
-2.101655e-19
-1.263180e-19
-5.822642e-20
-2.465413e-20
-1.036560e-20
-4.367013e-21
-1.887022e-21
-6.645318e-22
-8.079081e-23
4.582736e-24
3.398165e-24
1.688665e-24
4.543885e-25
-3.699999e-26
-2.443762e-26
-1.650781e-26
-8.105515e-27
1.000000e+00
1.000000e+00
1.000000e+00
1.000000e+00
1.000000e+00
1.000000e+00
1.000000e+00
9.999987e-01
9.999949e-01
9.999962e-01
9.999954e-01
9.992630e-01
9.929840e-01
9.724074e-01
9.302117e-01
8.319181e-01
7.228830e-01
5.195189e-01
4.071198e-01
2.222795e-01
1.368161e-01
6.859170e-02
3.015950e-02
1.136275e-02
3.516820e-03
9.476384e-04
4.595554e-04
2.242331e-04
1.110775e-04
4.056071e-05
8.190142e-06
2.126916e-06
1.826591e-06
1.330727e-06
6.096608e-07
1.254083e-07
6.743448e-09
4.817112e-09
3.473079e-09
1.886016e-09
1.557368e-09
1.010322e-09
4.961954e-10
2.398735e-10
9.379751e-11
1.680199e-11
1.754186e-12
1.315858e-12
1.132127e-12
7.886155e-13
4.136295e-13
1.542174e-13
1.939188e-14
-9.144274e-16
3.664841e-16
3.093447e-16
1.071978e-16
2.062089e-17
5.543131e-18
2.758333e-18
-8.328225e-18
-1.466774e-18
-3.063090e-19
-2.073536e-19
-1.167017e-19
-5.680229e-20
-2.381933e-20
-8.559025e-21
-3.425734e-21
-1.933535e-21
-1.381703e-21
-8.597099e-22
-3.645497e-22
-6.984655e-23
2.671959e-24
1.554003e-24
9.647357e-25
4.054909e-25
1.492785e-25
4.362311e-26
1.000000e+00
1.000000e+00
1.000000e+00
1.000000e+00
1.000000e+00
1.000000e+00
1.000000e+00
1.000000e+00
9.999973e-01
9.999965e-01
9.999974e-01
9.999422e-01
9.989925e-01
9.902100e-01
9.711868e-01
9.210280e-01
8.231980e-01
7.196019e-01
5.218618e-01
4.078494e-01
2.281036e-01
1.366058e-01
6.949569e-02
3.125381e-02
1.175739e-02
3.375899e-03
5.546923e-04
2.197300e-04
1.192022e-04
9.759807e-05
5.452004e-05
1.544876e-05
2.025157e-06
1.284806e-06
1.017671e-06
6.676064e-07
3.325762e-07
1.522626e-07
5.795882e-08
1.024510e-08
6.504608e-10
7.600382e-10
4.523486e-10
2.328984e-10
1.902945e-10
1.210818e-10
5.854765e-11
1.897678e-11
1.174029e-12
6.937179e-13
3.980248e-13
3.160959e-13
2.018027e-13
9.567055e-14
4.233174e-14
1.865527e-14
8.125142e-15
3.520935e-15
1.519645e-15
7.086647e-16
2.279043e-16
1.207356e-17
-1.623204e-18
-1.054648e-18
-5.864849e-19
-3.229757e-19
-1.744964e-19
-8.588445e-20
-3.496440e-20
-8.757131e-21
-9.902615e-22
-6.493454e-22
-5.936740e-22
-4.022227e-22
-2.078829e-22
-8.824562e-23
-3.214176e-23
-5.423750e-24
1.414902e-25
1.355203e-25
1.000000e+00
1.000000e+00
1.000000e+00
1.000000e+00
1.000000e+00
1.000000e+00
1.000000e+00
1.000000e+00
9.999996e-01
9.999972e-01
9.999975e-01
9.999746e-01
1.000000e+00
9.975293e-01
9.896831e-01
9.672043e-01
9.135366e-01
8.160906e-01
7.166747e-01
5.215240e-01
4.107800e-01
2.332013e-01
1.463432e-01
7.662613e-02
3.644558e-02
1.521226e-02
5.245950e-03
1.312504e-03
2.912509e-04
1.017858e-04
8.439801e-05
6.182337e-05
2.894173e-05
7.492077e-06
1.081386e-06
4.946128e-07
3.007318e-07
1.436886e-07
1.156884e-07
7.525309e-08
3.660023e-08
1.728923e-08
6.364230e-09
1.022199e-09
1.688669e-10
8.461804e-11
6.998419e-11
5.497776e-11
3.287591e-11
1.197549e-11
1.993206e-12
2.091907e-13
1.841414e-13
6.967345e-14
1.347054e-14
1.789126e-14
5.666532e-15
1.450975e-15
1.409508e-15
7.245803e-16
5.437206e-16
3.134723e-16
1.399398e-16
6.031836e-17
2.640799e-17
9.453020e-18
1.446808e-18
-1.332816e-19
-7.864724e-20
-4.920820e-20
-2.453313e-20
-7.269724e-21
-6.009733e-22
-1.411513e-22
-1.262024e-22
-8.074808e-23
-5.785833e-23
-3.643629e-23
-1.844628e-23
-6.682158e-24
1.000000e+00
1.000000e+00
1.000000e+00
1.000000e+00
1.000000e+00
1.000000e+00
1.000000e+00
1.000000e+00
1.000000e+00
9.999985e-01
9.999986e-01
9.999872e-01
9.999917e-01
9.996275e-01
9.969555e-01
9.879839e-01
9.630176e-01
9.062745e-01
8.112831e-01
7.119895e-01
5.210790e-01
4.143804e-01
2.385795e-01
1.469306e-01
7.674212e-02
3.695428e-02
1.603497e-02
5.927682e-03
1.809536e-03
4.301908e-04
8.815899e-05
6.063757e-05
4.719721e-05
3.133001e-05
1.510868e-05
5.866635e-06
2.489895e-06
7.472428e-07
1.250083e-07
6.848250e-08
3.367551e-08
1.729613e-08
1.332229e-08
8.418518e-09
4.164408e-09
1.412019e-09
1.126214e-10
3.693362e-11
3.076830e-11
2.453223e-11
1.557299e-11
7.502796e-12
3.434731e-12
1.601874e-12
7.482366e-13
3.391569e-13
1.562221e-13
7.281384e-14
2.380753e-14
2.529885e-15
5.836285e-16
3.046656e-16
1.384651e-16
1.670761e-17
2.177652e-17
1.845082e-17
1.193833e-17
5.498987e-18
1.341324e-18
-1.949843e-20
-3.347788e-20
-2.446734e-20
-1.316169e-20
-6.219864e-21
-3.031056e-21
-8.021969e-22
-5.825465e-23
-3.755109e-23
-7.685172e-24
-4.956894e-24
1.000000e+00
1.000000e+00
1.000000e+00
1.000000e+00
1.000000e+00
1.000000e+00
1.000000e+00
1.000000e+00
1.000000e+00
9.999994e-01
9.999994e-01
9.999937e-01
9.999930e-01
9.999937e-01
9.993692e-01
9.962275e-01
9.860182e-01
9.586473e-01
8.993408e-01
8.088452e-01
7.067282e-01
5.196853e-01
4.154718e-01
2.429603e-01
1.591146e-01
8.339221e-02
4.027515e-02
1.765166e-02
6.889169e-03
2.322008e-03
6.530626e-04
1.564262e-04
5.648797e-05
3.595293e-05
2.293040e-05
1.075310e-05
4.172684e-06
2.696451e-06
1.483532e-06
7.049334e-07
2.793460e-07
6.434073e-08
9.748355e-09
8.413245e-09
4.517923e-09
3.565472e-09
2.220783e-09
8.460677e-10
1.426895e-10
2.363475e-11
1.520427e-11
6.007436e-12
3.508570e-12
1.168196e-12
6.299272e-13
3.034072e-13
1.341947e-13
7.435833e-14
5.774867e-14
3.483607e-14
1.613291e-14
7.032741e-15
3.214561e-15
1.239342e-15
1.975971e-16
8.395146e-18
1.021733e-17
8.800608e-18
5.789856e-18
3.132104e-18
1.292795e-18
5.418383e-19
1.577692e-19
3.254830e-21
-2.962617e-21
-2.939496e-21
-1.674432e-21
-7.667025e-22
-3.399416e-22
-1.283415e-22
1.000000e+00
1.000000e+00
1.000000e+00
1.000000e+00
1.000000e+00
1.000000e+00
1.000000e+00
1.000000e+00
1.000000e+00
9.999997e-01
9.999998e-01
9.999979e-01
9.999941e-01
9.999945e-01
9.999378e-01
9.991186e-01
9.953397e-01
9.838099e-01
9.547247e-01
8.885218e-01
8.115408e-01
7.049455e-01
5.185144e-01
4.165481e-01
2.444848e-01
1.649109e-01
8.850443e-02
4.340500e-02
1.931354e-02
7.727401e-03
2.723408e-03
8.168813e-04
2.190718e-04
7.262675e-05
4.093876e-05
2.729425e-05
1.286915e-05
3.197986e-06
1.521121e-06
6.982769e-07
5.478347e-07
3.542497e-07
1.883065e-07
6.642890e-08
9.876433e-09
2.427166e-09
2.180824e-09
1.726593e-09
1.092315e-09
5.204632e-10
2.378222e-10
1.099658e-10
5.186175e-11
2.381176e-11
1.100530e-11
5.310466e-12
1.755706e-12
1.988465e-13
3.544305e-14
2.819345e-14
1.084760e-14
6.739902e-15
2.704858e-15
2.316606e-15
1.560103e-15
6.489192e-16
1.382859e-16
3.154636e-18
5.399019e-18
-4.142077e-19
5.060587e-19
5.101121e-19
4.081839e-19
2.271234e-19
9.644130e-20
3.789894e-20
1.488386e-20
5.826179e-21
2.279465e-21
8.470118e-22
1.000000e+00
1.000000e+00
1.000000e+00
1.000000e+00
1.000000e+00
1.000000e+00
1.000000e+00
1.000000e+00
1.000000e+00
9.999999e-01
9.999998e-01
9.999998e-01
9.999966e-01
9.999957e-01
9.999961e-01
9.998395e-01
9.989923e-01
9.937596e-01
9.846194e-01
9.403103e-01
8.937631e-01
7.989709e-01
7.032652e-01
5.214643e-01
4.171080e-01
2.478181e-01
1.704737e-01
9.364607e-02
4.704709e-02
2.141572e-02
8.809849e-03
3.215928e-03
1.010588e-03
2.697572e-04
7.285557e-05
3.783620e-05
2.931801e-05
1.950447e-05
9.319699e-06
2.934949e-06
5.879896e-07
3.609231e-07
1.909141e-07
1.525023e-07
9.788184e-08
4.102293e-08
8.504426e-09
1.741208e-09
8.174941e-10
3.514057e-10
2.371944e-10
8.259044e-11
5.173201e-11
1.734257e-11
7.955016e-12
5.261538e-12
4.314144e-12
2.620446e-12
1.200901e-12
5.439366e-13
2.517036e-13
1.115786e-13
2.817814e-14
3.344087e-15
1.517878e-15
1.156586e-15
7.689704e-16
3.887019e-16
1.744952e-16
8.596427e-17
2.859288e-17
2.825062e-18
-1.442808e-19
1.980672e-19
6.129669e-20
1.172532e-20
6.563975e-21
4.852063e-21
1.741452e-21
8.580993e-23
1.000000e+00
1.000000e+00
1.000000e+00
1.000000e+00
1.000000e+00
1.000000e+00
1.000000e+00
1.000000e+00
1.000000e+00
1.000000e+00
9.999999e-01
9.999999e-01
9.999990e-01
9.999967e-01
9.999976e-01
9.999266e-01
9.999476e-01
9.969682e-01
9.968243e-01
9.755328e-01
9.436346e-01
8.871755e-01
7.906790e-01
7.010224e-01
5.218964e-01
4.173714e-01
2.502829e-01
1.743541e-01
9.760089e-02
5.028756e-02
2.346081e-02
9.942065e-03
3.804606e-03
1.287162e-03
3.697900e-04
8.398583e-05
3.000896e-05
1.977194e-05
1.442732e-05
9.703189e-06
5.020757e-06
1.890690e-06
5.376270e-07
1.435860e-07
9.375869e-08
7.486066e-08
4.972041e-08
2.532856e-08
1.189593e-08
5.695924e-09
2.639950e-09
1.241725e-09
5.840242e-10
2.901440e-10
1.036903e-10
1.558068e-11
4.627981e-12
1.825008e-12
1.124574e-12
3.465610e-13
1.603778e-13
8.085605e-14
3.388702e-14
2.501525e-14
6.420981e-15
7.765039e-16
5.958487e-16
2.377477e-16
1.694523e-16
8.663386e-17
6.702231e-17
3.891065e-17
1.819721e-17
7.607051e-18
3.336094e-18
1.445991e-18
6.238428e-19
2.698513e-19
1.167882e-19
4.735302e-20
1.000000e+00
1.000000e+00
1.000000e+00
1.000000e+00
1.000000e+00
1.000000e+00
1.000000e+00
1.000000e+00
1.000000e+00
1.000000e+00
1.000000e+00
9.999999e-01
9.999999e-01
9.999982e-01
9.999983e-01
9.999671e-01
9.999856e-01
9.986232e-01
9.987178e-01
9.924897e-01
9.749269e-01
9.412215e-01
8.823150e-01
7.836479e-01
6.994208e-01
5.244173e-01
4.205833e-01
2.545676e-01
1.789911e-01
1.014105e-01
5.352362e-02
2.546444e-02
1.098827e-02
4.328861e-03
1.563019e-03
5.137504e-04
1.470571e-04
4.504932e-05
1.894416e-05
1.173476e-05
7.811078e-06
4.230104e-06
2.333912e-06
1.146785e-06
4.261194e-07
8.256801e-08
4.789577e-08
2.443636e-08
1.094725e-08
5.277999e-09
2.659954e-09
1.287524e-09
5.362456e-10
2.931741e-10
2.350350e-10
1.454873e-10
7.049491e-11
3.278588e-11
1.509124e-11
7.198491e-12
2.859956e-12
9.520877e-13
3.431321e-13
1.413985e-13
6.988127e-14
3.103726e-14
1.446717e-14
6.893101e-15
2.303305e-15
2.600523e-16
2.794869e-17
2.582451e-17
1.864949e-17
2.783179e-18
2.906396e-18
1.197299e-18
3.247882e-19
1.387047e-19
1.014137e-19
4.095801e-20
1.000000e+00
1.000000e+00
1.000000e+00
1.000000e+00
1.000000e+00
1.000000e+00
1.000000e+00
1.000000e+00
1.000000e+00
1.000000e+00
1.000000e+00
1.000000e+00
1.000000e+00
9.999992e-01
9.999992e-01
9.999850e-01
9.999855e-01
9.993888e-01
9.993692e-01
9.979349e-01
9.905077e-01
9.730498e-01
9.372639e-01
8.797051e-01
7.715173e-01
6.918083e-01
5.232613e-01
4.221750e-01
2.585520e-01
1.839867e-01
1.048202e-01
5.699036e-02
2.781538e-02
1.219130e-02
4.823102e-03
1.740028e-03
5.754314e-04
1.824650e-04
6.073698e-05
2.393020e-05
1.266843e-05
7.817662e-06
3.660580e-06
1.693663e-06
1.051896e-06
6.570868e-07
3.326884e-07
1.704515e-07
8.634343e-08
4.316212e-08
2.161150e-08
1.098586e-08
4.444277e-09
1.007855e-09
2.383250e-10
1.195240e-10
6.443821e-11
2.813008e-11
1.352758e-11
7.156533e-12
2.978431e-12
8.429021e-13
2.827830e-13
1.157678e-13
6.036533e-14
2.380114e-14
9.708862e-15
6.778833e-15
5.661074e-15
3.444115e-15
1.576304e-15
6.981566e-16
3.255800e-16
1.444031e-16
6.389741e-17
2.990856e-17
1.322171e-17
6.062217e-18
1.903503e-18
2.590343e-19
1.000000e+00
1.000000e+00
1.000000e+00
1.000000e+00
1.000000e+00
1.000000e+00
1.000000e+00
1.000000e+00
1.000000e+00
1.000000e+00
1.000000e+00
1.000000e+00
1.000000e+00
9.999996e-01
9.999998e-01
9.999930e-01
9.999931e-01
9.997719e-01
9.995609e-01
9.994625e-01
9.969743e-01
9.892427e-01
9.704395e-01
9.337901e-01
8.782889e-01
7.662022e-01
6.869222e-01
5.219747e-01
4.232807e-01
2.619466e-01
1.899245e-01
1.067511e-01
5.989585e-02
3.033712e-02
1.378037e-02
5.605969e-03
2.044978e-03
6.778621e-04
2.141757e-04
7.181945e-05
2.744742e-05
1.379960e-05
9.932212e-06
4.472705e-06
1.456681e-06
6.368205e-07
3.355471e-07
1.503397e-07
8.275769e-08
3.694314e-08
1.966806e-08
1.101915e-08
8.801793e-09
5.679968e-09
2.890346e-09
1.366374e-09
6.554687e-10
3.289384e-10
1.123065e-10
2.446177e-11
9.155204e-12
7.165728e-12
3.927502e-12
1.916976e-12
8.873307e-13
4.170703e-13
1.448549e-13
1.879998e-14
5.313747e-15
1.535870e-15
1.471306e-15
4.028347e-16
2.322366e-16
1.226764e-16
6.341630e-17
2.986125e-17
1.372319e-17
6.222306e-18
4.978941e-18
2.493024e-18
1.000000e+00
1.000000e+00
1.000000e+00