# vtk DataFile Version 3.0
MUSCL
ASCII
DATASET STRUCTURED_POINTS
DIMENSIONS 80 80 1
ORIGIN 0 0 0
SPACING 0.0125 0.0125 1
POINT_DATA 6400
SCALARS Temperature double 1
LOOKUP_TABLE default
0.000000e+00
-6.739999e-01
-1.939382e-01
-2.456482e-02
-3.502169e-04
2.584337e-05
-3.294030e-08
-6.526142e-07
-1.966827e-07
-9.051676e-08
-4.362005e-08
-2.001220e-08
-9.016787e-09
-4.029135e-09
-1.672057e-09
-5.872385e-10
-5.497569e-12
8.534499e-13
9.348762e-13
1.750219e-13
-4.558645e-15
-7.736293e-15
2.352220e-15
5.969326e-15
3.702825e-15
1.327222e-15
4.008539e-16
1.061965e-16
2.913150e-17
6.988976e-18
1.432602e-18
1.862257e-19
2.576524e-21
-6.472164e-24
3.868115e-22
6.099573e-22
4.966344e-22
2.580664e-22
1.326451e-22
5.570607e-23
1.878510e-23
-3.908886e-25
-4.618200e-25
-2.931523e-25
-2.297276e-25
-1.567827e-25
-9.840087e-26
-5.650646e-26
-3.033174e-26
-1.559914e-26
-7.847849e-27
-3.902392e-27
-1.921696e-27
-9.394080e-28
-4.487216e-28
-1.346745e-28
-4.905066e-30
2.481557e-30
7.784638e-31
2.848494e-31
1.214508e-31
4.581913e-32
2.185478e-33
-8.411621e-34
-3.379170e-34
-1.399994e-34
-5.066266e-35
-1.018688e-35
-2.489309e-37
1.416552e-37
1.006743e-37
4.776369e-38
2.105126e-38
8.631734e-39
3.415074e-39
1.370127e-39
5.700968e-40
2.453424e-40
8.994114e-41
7.498172e-41
1.326000e+00
6.739999e-01
1.939382e-01
2.456482e-02
3.502169e-04
-2.584337e-05
3.294030e-08
6.526142e-07
1.966827e-07
9.051676e-08
4.362005e-08
2.001220e-08
9.016787e-09
4.029135e-09
1.672057e-09
5.872385e-10
5.497569e-12
-8.534499e-13
-9.348762e-13
-1.750219e-13
4.558645e-15
7.736293e-15
-2.352220e-15
-5.969326e-15
-3.702825e-15
-1.327222e-15
-4.008539e-16
-1.061965e-16
-2.913150e-17
-6.988976e-18
-1.432602e-18
-1.862257e-19
-2.576524e-21
6.472164e-24
-3.868115e-22
-6.099573e-22
-4.966344e-22
-2.580664e-22
-1.326451e-22
-5.570607e-23
-1.878510e-23
3.908886e-25
4.618200e-25
2.931523e-25
2.297276e-25
1.567827e-25
9.840087e-26
5.650646e-26
3.033174e-26
1.559914e-26
7.847849e-27
3.902392e-27
1.921696e-27
9.394080e-28
4.487216e-28
1.346745e-28
4.905066e-30
-2.481557e-30
-7.784638e-31
-2.848494e-31
-1.214508e-31
-4.581913e-32
-2.185478e-33
8.411621e-34
3.379170e-34
1.399994e-34
5.066266e-35
1.018688e-35
2.489309e-37
-1.416552e-37
-1.006743e-37
-4.776369e-38
-2.105126e-38
-8.631734e-39
-3.415074e-39
-1.370127e-39
-5.700968e-40
-2.453424e-40
-8.994114e-41
-7.498172e-41
1.041969e+00
9.580314e-01
5.985834e-01
2.398325e-01
5.880503e-02
3.841496e-03
-1.000710e-04
-4.239632e-05
-2.215806e-05
-1.075624e-05
-4.761359e-06
-2.044112e-06
-8.568009e-07
-2.237988e-07
-2.027892e-09
1.023977e-09
8.841912e-10
2.484653e-10
-1.171616e-13
-5.435231e-13
-9.969804e-13
-3.843325e-13
8.821845e-15
-3.002321e-15
-1.218114e-15
-7.225836e-16
-2.894306e-16
-1.101975e-16
-3.850048e-17
-1.276194e-17
-3.976711e-18
-1.214571e-18
-3.791513e-19
-6.420467e-20
-1.290983e-21
1.561016e-20
1.580613e-20
8.046424e-21
1.431815e-21
-9.096413e-23
-8.195386e-23
-5.882266e-23
-3.426017e-23
-2.684964e-23
-2.047968e-23
-1.395890e-23
-8.445118e-24
-4.716255e-24
-2.515115e-24
-1.315711e-24
-5.633651e-25
-1.798260e-25
-4.405357e-26
-5.356157e-27
4.675636e-28
6.987045e-28
3.348839e-28
1.497267e-28
7.751470e-29
3.021180e-29
7.079366e-30
-1.169417e-31
-8.077799e-32
-5.512545e-32
-2.771973e-32
-1.135319e-32
-3.076299e-33
-2.821828e-34
-1.911726e-36
1.990285e-35
1.261128e-35
6.395464e-36
3.096805e-36
1.397898e-36
5.963112e-37
2.447823e-37
9.792985e-38
3.854421e-38
1.453415e-38
6.326614e-39
9.999850e-01
1.000015e+00
8.880352e-01
5.934878e-01
2.706232e-01
8.388099e-02
1.605249e-02
1.295317e-03
4.920196e-04
2.045755e-04
7.336171e-05
9.038489e-06
-1.074682e-06
-8.340709e-07
-4.859223e-07
-1.742663e-07
-1.133285e-08
9.738470e-10
5.790362e-10
2.286984e-10
1.356362e-12
-1.056012e-12
-9.104733e-13
-4.033543e-13
-1.594281e-13
-6.555013e-14
-1.022214e-14
-1.829661e-16
1.003392e-16
7.825652e-17
3.739488e-17
7.513464e-18
-5.055568e-19
-1.418989e-19
-4.692271e-19
-8.765781e-19
-5.418479e-19
8.942456e-21
7.961105e-21
6.002786e-21
2.806036e-21
1.157647e-21
3.955191e-22
7.282941e-23
-1.426936e-24
-3.800817e-24
-1.357699e-24
-2.391818e-24
-1.058112e-25
-1.164898e-24
-9.166792e-25
-6.707395e-25
-3.847880e-25
-1.937288e-25
-8.145446e-26
-3.175573e-26
-1.474360e-26
-8.351837e-27
-2.272446e-27
1.982043e-29
3.437160e-29
2.248112e-29
1.028277e-29
4.607168e-30
1.880329e-30
5.550379e-31
4.725972e-32
1.503489e-33
-2.626924e-33
-1.748174e-33
-9.165572e-34
-4.663455e-34
-2.247008e-34
-1.027155e-34
-4.458782e-35
-1.838106e-35
-7.237006e-36
-2.762296e-36
-1.025050e-36
-4.378662e-37
9.998856e-01
1.000114e+00
9.863971e-01
8.523502e-01
5.808913e-01
2.960708e-01
9.883863e-02
2.193433e-02
6.657463e-04
1.772046e-04
1.345262e-04
8.957466e-05
4.052200e-05
7.788111e-06
-2.939327e-07
-3.788401e-07
-2.612482e-07
-7.524469e-08
-6.734450e-10
2.265163e-10
3.067482e-10
1.774798e-10
7.713143e-11
3.502778e-11
1.208249e-11
8.668888e-13
-4.892492e-14
-3.898117e-14
-1.493724e-14
-6.435250e-15
-7.174827e-16
-1.206990e-17
1.957355e-17
9.921143e-18
2.273141e-18
-5.176649e-20
-6.496447e-19
-1.046279e-18
-7.554852e-19
-3.670281e-19
-1.726739e-19
-7.679568e-20
-3.213435e-20
-1.278905e-20
-4.828720e-21
-1.780030e-21
-6.678989e-22
-2.716390e-22
-1.217444e-22
-3.821940e-23
-1.191887e-24
-5.995071e-25
-2.707173e-25
-1.194237e-25
-5.823833e-26
-3.073868e-26
7.374470e-27
-1.411895e-27
-4.525895e-27
-5.890233e-27
-3.199079e-27
-1.504824e-27
-6.767751e-28
-2.766634e-28
-7.879862e-29
-3.213057e-30
4.482170e-32
3.811678e-31
2.251062e-31
1.080171e-31
5.300179e-32
2.567565e-32
1.198481e-32
5.321906e-33
2.245758e-33
9.072262e-34
3.547068e-34
1.397684e-34
4.201885e-35
2.914838e-36
9.999728e-01
1.000027e+00
1.000172e+00
9.655966e-01
8.296213e-01
5.645652e-01
3.366109e-01
1.268009e-01
3.482671e-02
2.590244e-03
-8.128080e-05
6.623907e-05
6.110125e-05
4.429361e-05
1.965093e-05
3.260529e-06
-2.555110e-07
-2.223461e-07
-1.388417e-07
-6.250349e-08
-2.603036e-08
-1.117090e-08
-3.525514e-09
-8.611158e-11
2.108707e-11
1.832996e-11
5.828671e-12
8.262321e-13
-1.813526e-14
-1.494191e-14
-7.467504e-15
-3.665826e-15
-1.787008e-15
-9.006476e-16
-3.930247e-16
-8.447812e-17
-1.022884e-18
-3.683565e-19
-4.576634e-19
-2.599700e-19
-1.329085e-19
-7.407786e-20
3.126435e-20
1.243977e-20
-1.598763e-21
-1.291600e-21
-3.929829e-22
-2.113066e-22
-1.387535e-22
-8.886883e-23
-6.167068e-23
-3.199639e-23
-1.611085e-23
-7.577869e-24
-3.308677e-24
-1.393934e-24
-6.277808e-25
-2.165043e-25
-2.006719e-26
-1.733156e-27
-2.469291e-27
-1.061962e-27
-2.655874e-28
-1.611547e-28
-1.159409e-28
-9.219951e-29
-5.324830e-29
-2.827520e-29
-1.401527e-29
-6.590132e-30
-2.983700e-30
-1.308971e-30
-5.589086e-31
-2.328896e-31
-9.516161e-32
-3.808921e-32
-1.077275e-32
-3.084750e-34
4.001327e-35
5.497701e-35
9.999935e-01
1.000006e+00
1.000049e+00
9.983627e-01
9.483794e-01
8.109785e-01
5.426518e-01
3.577090e-01
1.479532e-01
5.008168e-02
9.743775e-03
1.035612e-04
1.224428e-05
3.416575e-05
3.258905e-05
2.127198e-05
1.080929e-05
4.457991e-06
1.846739e-06
7.148414e-07
1.294901e-07
-1.257480e-08
-8.452225e-09
-5.094713e-09
-1.315918e-09
5.130437e-12
1.456398e-11
1.171888e-11
4.902828e-12
1.916205e-12
7.903679e-13
3.474605e-13
1.394642e-13
3.279377e-14
-5.395313e-16
-3.210501e-16
-2.099033e-16
-1.063551e-16
-5.081710e-17
-2.272798e-17
-9.649400e-18
-3.987752e-18
-1.666354e-18
-7.098883e-19
-2.585692e-19
-1.077226e-19
-2.995514e-20
-3.060731e-21
-1.362571e-23
-3.840806e-23
-2.934285e-23
-2.577891e-23
-2.924965e-24
3.935993e-25
4.480480e-26
-4.885671e-25
-4.929644e-25
-2.312123e-25
-2.583203e-25
-1.571718e-25
-7.693683e-26
-2.988951e-26
-9.905560e-27
-2.806797e-27
-9.318358e-29
1.356350e-29
-2.809322e-29
-8.936631e-30
-1.302621e-29
-6.329007e-30
-3.079044e-30
4.450725e-31
4.816731e-31
-7.255013e-32
-5.832312e-32
-4.378381e-32
-3.332418e-32
-1.774888e-32
-7.256532e-33
-2.517902e-33
9.999967e-01
1.000003e+00
1.000008e+00
1.000034e+00
9.921399e-01
9.348734e-01
7.949466e-01
5.168458e-01
3.729708e-01
1.555636e-01
5.831235e-02
1.606869e-02
2.126839e-03
8.706384e-05
3.337415e-05
2.033548e-05
1.097313e-05
4.491835e-06
1.785190e-06
1.088090e-06
7.850345e-07
3.281996e-07
4.384950e-08
-4.501826e-09
-4.486061e-09
-2.570898e-09
-1.083148e-09
-4.665959e-10
-2.031852e-10
-9.039952e-11
-3.514695e-11
-6.618351e-12
1.157143e-13
1.311188e-13
7.895459e-14
3.511375e-14
1.557311e-14
6.837158e-15
2.953690e-15
1.254408e-15
5.311878e-16
2.076048e-16
5.559883e-17
2.370990e-18
-6.225685e-19
-2.723990e-19
-1.403858e-19
-7.321260e-20
-3.210726e-20
-1.302991e-20
-5.651748e-21
-2.589126e-21
-1.170430e-21
-4.891665e-22
-1.935449e-22
-7.566678e-23
-2.144227e-23
-2.546799e-24
-2.709610e-26
-1.404848e-25
-1.078356e-25
-8.004671e-26
-4.766562e-26
-2.466740e-26
-1.039840e-26
-4.610724e-27
-2.303349e-27
-1.190773e-27
-6.054557e-28
-2.933280e-28
-1.396790e-28
-6.252552e-29
-2.778450e-29
-1.221103e-29
-3.129881e-30
-8.393016e-32
-3.089873e-32
-1.539760e-32
-6.747007e-33
-2.415208e-33
9.999988e-01
1.000001e+00
1.000001e+00
1.000035e+00
9.999691e-01
9.849081e-01
9.218625e-01
7.795559e-01
5.212888e-01
3.784211e-01
1.648964e-01
6.667861e-02
2.048607e-02
4.251718e-03
3.853574e-04
7.706453e-05
4.477509e-05
2.498212e-05
9.186540e-06
1.959668e-06
8.145977e-07
6.237348e-07
3.861859e-07
1.903463e-07
8.202882e-08
3.488929e-08
1.459150e-08
6.322594e-09
1.819322e-09
-6.468882e-11
-5.973402e-11
-3.947845e-11
-2.029887e-11
-8.725253e-12
-3.753877e-12
-1.606356e-12
-6.833008e-13
-2.890845e-13
-1.244487e-13
-4.817515e-14
-7.955821e-15
3.662338e-16
1.860778e-16
1.048016e-16
3.118580e-17
3.280732e-18
-5.953865e-20
2.550356e-19
2.091723e-19
8.367280e-20
3.205935e-20
1.219834e-20
3.280085e-21
2.952843e-22
-1.809533e-22
-8.994887e-23
-4.701277e-23
-2.507491e-23
-9.512478e-24
-2.396823e-24
-1.542116e-25
-5.580175e-26
-3.291274e-26
-1.551537e-26
-9.595766e-27
-2.041237e-27
-1.734499e-27
-7.395705e-28
-4.230794e-28
-2.687480e-28
-3.962422e-29
-2.842954e-29
-2.503118e-29
-1.205631e-29
-9.249228e-30
-5.166228e-30
-2.302415e-30
-9.928668e-31
-4.141434e-31
-1.710223e-31
9.999997e-01
1.000000e+00
1.000000e+00
1.000013e+00
1.000035e+00
9.988747e-01
9.786790e-01
9.080094e-01
7.698668e-01
5.221666e-01
3.810404e-01
1.771531e-01
7.563698e-02
2.535625e-02
5.902407e-03
4.502520e-04
2.194004e-05
2.956483e-05
2.396982e-05
1.303807e-05
3.601630e-06
6.756214e-07
3.672943e-07
1.921954e-07
7.878973e-08
3.311324e-08
1.401658e-08
6.501214e-09
4.944288e-09
2.846962e-09
1.209456e-09
5.001222e-10
2.024818e-10
8.127339e-11
3.244454e-11
1.285790e-11
5.328278e-12
1.454301e-12
-8.052036e-14
-7.388450e-14
-5.270429e-14
-2.177814e-14
-2.754452e-15
2.147830e-16
9.891392e-17
4.516331e-17
6.818800e-18
-2.980943e-19
1.683483e-19
4.455882e-20
4.517931e-21
1.016437e-20
8.764934e-21
4.904239e-21
2.032553e-21
5.537683e-22
7.989089e-23
-1.084151e-23
-1.521272e-23
-1.039748e-23
-5.058833e-24
-1.301115e-24
-1.306184e-25
-1.746728e-25
-1.541745e-25
-8.832177e-26
-4.904874e-26
-2.553841e-26
-1.301372e-26
-6.358106e-27
-3.053735e-27
-1.433134e-27
-4.785133e-28
-5.750974e-29
-4.459329e-30
-6.341830e-31
-1.679238e-30
-7.871299e-31
-3.249260e-31
-1.642778e-31
9.999999e-01
1.000000e+00
1.000000e+00
1.000002e+00
1.000013e+00
1.000016e+00
9.972572e-01
9.709628e-01
8.968745e-01
7.615133e-01
5.236446e-01
3.740570e-01
1.874277e-01
8.578429e-02
3.199451e-02
8.917595e-03
1.251445e-03
5.835966e-05
2.387399e-05
2.056436e-05
1.504129e-05
6.489350e-06
1.921879e-06
8.975546e-07
4.752595e-07
2.433765e-07
1.007375e-07
2.324913e-08
5.001260e-09
2.621683e-09
9.583269e-10
3.853377e-10
1.212765e-10
6.974721e-11
2.657037e-11
1.226119e-11
5.016833e-12
4.054141e-12
2.267111e-12
4.775167e-13
-4.385674e-14
-4.251103e-14
-2.970075e-14
-1.126143e-14
-1.187748e-15
6.811543e-18
5.648229e-17
3.019762e-17
1.293722e-17
4.133547e-18
3.711874e-19
-8.653752e-21
1.153552e-21
-1.386283e-21
-2.754558e-21
-1.771217e-21
-7.485680e-22
-9.941869e-23
-8.154563e-24
-9.348373e-24
-7.251129e-24
-4.869733e-24
-2.868733e-24
-6.791151e-25
-1.267813e-25
-7.961001e-26
-2.932235e-26
-1.946520e-26
-1.108412e-26
-5.442409e-27
-1.741428e-27
-1.394095e-27
-1.089459e-27
-6.607621e-28
-2.993351e-28
-1.362078e-28
-5.973858e-29
-2.675630e-29
-1.010454e-29
-2.256226e-30
1.000000e+00
1.000000e+00
1.000000e+00
1.000000e+00
1.000006e+00
1.000008e+00
1.000005e+00
9.941411e-01
9.638527e-01
8.861145e-01
7.588636e-01
5.118637e-01
3.892816e-01
1.921028e-01
9.242517e-02
3.723852e-02
1.170683e-02
2.328740e-03
6.129542e-05
1.583193e-05
1.552528e-05
1.280959e-05
6.335459e-06
1.413774e-06
4.677897e-07
2.894450e-07
2.142076e-07
1.356293e-07
6.780544e-08
3.108435e-08
1.466982e-08
6.830859e-09
3.144039e-09
1.421912e-09
6.675433e-10
2.149110e-10
2.513665e-11
4.446353e-12
2.942807e-12
2.165836e-12
1.062256e-12
1.993214e-13
-2.761818e-14
-2.497279e-14
-1.546939e-14
-7.347858e-15
-3.205824e-15
-8.524848e-16
-9.533800e-19
8.740544e-18
7.412231e-18
3.396478e-18
1.438680e-18
6.203264e-19
1.511952e-19
8.574393e-22
-1.356713e-21
-1.176425e-21
-4.868189e-22
-5.463706e-23
6.006960e-25
-2.819756e-24
-3.292574e-24
-3.121697e-24
-1.920183e-24
-1.108512e-24
-6.356613e-25
-3.462737e-25
-1.840495e-25
-9.528573e-26
-4.634549e-26
-1.001512e-26
-1.309985e-27
-5.118803e-28
-2.982572e-28
-8.248114e-29
-3.358920e-29
-2.262574e-29
-1.790741e-29
-9.929639e-30
1.000000e+00
1.000000e+00
1.000000e+00
1.000000e+00
1.000002e+00
1.000006e+00
1.000007e+00
9.997678e-01
9.914809e-01
9.548592e-01
8.817612e-01
7.453981e-01
5.158897e-01
3.938054e-01
1.986866e-01
9.895969e-02
4.201675e-02
1.455376e-02
3.637319e-03
3.409422e-04
1.448150e-05
1.622053e-05
1.314422e-05
9.321963e-06
3.382301e-06
5.712493e-07
1.836019e-07
1.073637e-07
6.366911e-08
2.960609e-08
1.164441e-08
5.905563e-09
2.619325e-09
1.161532e-09
6.646654e-10
5.391984e-10
2.998846e-10
7.719298e-11
3.935904e-12
1.876921e-12
1.550910e-12
1.104649e-12
5.889175e-13
2.534730e-13
8.257536e-14
2.407825e-15
-3.169674e-15
-2.856820e-15
-1.606931e-15
-7.009353e-16
-3.108499e-16
-8.667924e-17
1.414398e-18
7.638262e-19
5.732493e-19
3.214665e-19
1.418620e-19
2.321798e-20
-4.353379e-22
-6.218972e-22
-3.264448e-22
-5.026246e-23
1.328538e-24
-2.333176e-24
-1.921975e-24
-1.068548e-24
-6.417310e-25
-2.487175e-25
-1.807780e-25
-7.018318e-26
-4.884745e-26
-4.378263e-26
-2.346530e-26
-1.100423e-26
-5.027857e-27
-2.333827e-27
-1.106289e-27
-3.351945e-28
-1.921538e-29
-6.969058e-30
1.000000e+00
1.000000e+00
1.000000e+00
1.000000e+00
1.000000e+00
1.000002e+00
1.000006e+00
9.999133e-01
9.998739e-01
9.863764e-01
9.508971e-01
8.715851e-01
7.384591e-01
5.161526e-01
3.972265e-01
2.052410e-01
1.052365e-01
4.641391e-02
1.747008e-02
5.013775e-03
5.960972e-04
7.903967e-06
6.667405e-06
8.901513e-06
7.883306e-06
4.991159e-06
2.388880e-06
1.172344e-06
5.741950e-07
2.762436e-07
1.318748e-07
6.397140e-08
3.185730e-08
1.181355e-08
2.256093e-09
5.079274e-10
4.438911e-10
3.275752e-10
1.497883e-10
3.218640e-11
1.555686e-12
6.281177e-13
3.327264e-13
2.428832e-13
1.858304e-13
1.101040e-13
5.127055e-14
2.054151e-14
6.322173e-15
2.345381e-16
-3.206440e-16
-2.723327e-16
-1.531179e-16
-6.580373e-17
-1.892768e-17
-3.128343e-20
1.713388e-19
1.437648e-19
7.482263e-20
1.426880e-20
-4.893158e-22
-3.262397e-22
-1.892675e-22
-8.569492e-23
-4.011671e-23
-1.874129e-23
-9.374686e-24
-4.636981e-24
-2.381365e-24
-9.689697e-25
-1.306507e-25
-3.311021e-26
-1.222730e-26
-1.044861e-26
-5.104269e-27
-2.221686e-27
-1.134929e-27
-8.992013e-28
-5.400156e-28
-2.216583e-28
1.000000e+00
1.000000e+00
1.000000e+00
1.000000e+00
1.000000e+00
1.000000e+00
1.000004e+00
9.999638e-01
1.000001e+00
9.977289e-01
9.839174e-01
9.447556e-01
8.635111e-01
7.326396e-01
5.157757e-01
4.002427e-01
2.116262e-01
1.117427e-01
5.058261e-02
2.040511e-02
7.042650e-03
1.703141e-03
2.181892e-04
1.032684e-05
6.220383e-06
4.704322e-06
-4.992270e-07
4.610168e-07
2.561363e-07
1.895043e-07
1.236959e-07
5.073600e-08
3.208381e-08
2.561854e-08
1.538044e-08
4.956240e-09
5.039788e-10
2.676479e-10
2.458114e-10
1.633192e-10
8.135773e-11
3.798424e-11
1.357965e-11
1.835391e-12
1.077377e-14
9.983129e-14
-3.825748e-15
1.611035e-14
1.390497e-14
8.003168e-15
3.373808e-15
7.274572e-16
-1.514970e-16
-8.908541e-17
-5.762782e-17
-3.212748e-17
-1.443185e-17
-3.267332e-18
1.872198e-20
5.728447e-20
3.842479e-20
1.709567e-20
7.388676e-21
3.193191e-21
1.380235e-21
5.951890e-22
2.312645e-22
5.420570e-23
-2.684224e-24
-1.838168e-24
-1.345587e-24
-6.406074e-25
-3.080917e-25
-1.433932e-25
-6.952902e-26
-2.512290e-26
-2.840485e-27
-7.709129e-28
-5.452304e-28
-3.762618e-28
1.000000e+00
1.000000e+00
1.000000e+00
1.000000e+00
1.000000e+00
1.000000e+00
1.000002e+00
9.999849e-01
9.999964e-01
9.999773e-01
9.962472e-01
9.802444e-01
9.386954e-01
8.559089e-01
7.276516e-01
5.150171e-01
4.023207e-01
2.167599e-01
1.190050e-01
5.370828e-02
2.139324e-02
7.335533e-03
2.227795e-03
7.315212e-04
3.140230e-04
1.393957e-04
6.503720e-05
2.847913e-05
1.286644e-05
5.739762e-06
2.653944e-06
8.639143e-07
1.184599e-07
2.090090e-08
1.926916e-08
1.531033e-08
8.336710e-09
2.164393e-09
2.776587e-10
1.660411e-10
7.905943e-11
3.660251e-11
2.856224e-11
1.804077e-11
8.440954e-12
3.866724e-12
1.473242e-12
1.857633e-13
7.448004e-15
5.441763e-15
4.516413e-15
2.977088e-15
1.630178e-15
5.435811e-16
1.010568e-16
-2.034207e-17
-1.535487e-17
-1.157107e-17
-6.129727e-18
-2.595998e-18
-1.133516e-18
-4.956716e-19
-2.120051e-19
-9.355267e-20
-2.824218e-20
-1.505243e-22
4.189872e-22
2.793094e-22
1.307118e-22
5.303685e-23
2.178991e-23
9.104696e-24
3.674199e-24
8.072250e-25
-6.495723e-26
-5.252932e-26
-3.697137e-26
-1.180505e-26
-1.116817e-27
-3.427284e-28
1.000000e+00
1.000000e+00
1.000000e+00
1.000000e+00
1.000000e+00
1.000000e+00
1.000001e+00
9.999938e-01
9.999932e-01
1.000005e+00
9.996634e-01
9.947709e-01
9.764146e-01
9.334708e-01
8.476071e-01
7.250050e-01
5.158653e-01
4.044909e-01
2.192455e-01
1.311587e-01
6.150483e-02
2.462627e-02
8.070054e-03
1.888171e-03
3.485803e-04
1.432061e-04
5.554778e-05
2.912257e-05
1.145389e-05
5.368766e-06
2.704836e-06
2.171668e-06
1.193207e-06
2.950649e-07
1.785203e-08
1.537924e-08
1.183104e-08
8.575465e-09
4.368926e-09
2.098950e-09
8.199934e-10
1.682081e-10
2.107744e-11
1.338834e-11
8.481529e-12
3.848856e-12
3.016602e-12
1.917534e-12
7.931682e-13
1.649056e-13
2.746992e-15
2.771393e-15
1.364921e-15
9.273564e-16
5.389573e-16
2.455561e-16
7.054729e-17
1.076528e-17
-3.615302e-18
-2.604450e-18
-1.112570e-18
-5.119117e-19
-1.915396e-19
-9.465517e-20
-7.418284e-20
-4.277460e-20
-1.900539e-20
-8.309529e-21
-3.625490e-21
-1.600352e-21
-6.267635e-22
-1.024551e-22
4.782643e-24
3.172409e-24
1.765492e-24
3.844317e-25
-2.718203e-26
-2.915866e-26
-1.835430e-26
-8.250580e-27
1.000000e+00
1.000000e+00
1.000000e+00
1.000000e+00
1.000000e+00
1.000000e+00
1.000000e+00
9.999986e-01
9.999941e-01
9.999954e-01
9.999893e-01
9.992585e-01
9.929773e-01
9.723929e-01
9.301899e-01
8.319028e-01
7.228802e-01
5.195293e-01
4.071400e-01
2.222909e-01
1.368033e-01
6.857240e-02
3.013476e-02
1.135793e-02
3.506747e-03
9.750124e-04
4.763278e-04
2.287998e-04
1.154866e-04
4.096785e-05
8.278824e-06
2.250308e-06
1.799079e-06
1.341898e-06
5.885321e-07
1.281814e-07
1.451815e-08
8.491966e-09
3.019733e-09
2.063649e-09
1.612934e-09
1.025438e-09
5.147499e-10
2.437012e-10
9.742398e-11
1.643805e-11
1.733738e-12
1.896671e-12
1.386407e-12
8.933454e-13
4.465098e-13
1.588670e-13
1.964605e-14
9.861028e-16
-4.385017e-17
3.458525e-17
2.583388e-17
2.375270e-18
-8.746060e-18
-9.799442e-18
-6.477023e-18
-3.467750e-18
-1.466276e-18
-3.292594e-19
-6.086962e-20
-4.145233e-20
-1.518120e-20
-6.908839e-21
-3.122631e-21
-1.368712e-21
-1.005041e-21
-7.180188e-22
-3.152181e-22
-5.880683e-23
7.431106e-25
1.638483e-24
9.981347e-25
4.348314e-25
1.370448e-25
2.213525e-26
1.000000e+00
1.000000e+00
1.000000e+00
1.000000e+00
1.000000e+00
1.000000e+00
1.000000e+00
1.000000e+00
9.999971e-01
9.999957e-01
9.999972e-01
9.999408e-01
9.989875e-01
9.901861e-01
9.711547e-01
9.210021e-01
8.231889e-01
7.196033e-01
5.218775e-01
4.078654e-01
2.280960e-01
1.365869e-01
6.946910e-02
3.123688e-02
1.173603e-02
3.377761e-03
5.616541e-04
2.216008e-04
1.221835e-04
1.001143e-04
5.567841e-05
1.565914e-05
1.891791e-06
1.351726e-06
1.038490e-06
6.879690e-07
3.436638e-07
1.567000e-07
5.979280e-08
1.045526e-08
1.666831e-09
1.036508e-09
2.920972e-10
2.106287e-10
1.896824e-10
1.236380e-10
6.230276e-11
1.963195e-11
1.539535e-12
6.797199e-13
4.180089e-13
3.399667e-13
2.128247e-13
9.894166e-14
4.281240e-14
1.846533e-14
7.803168e-15
3.249994e-15
1.338868e-15
5.746898e-16
1.717413e-16
3.244744e-18
-2.744855e-18
-2.092939e-18
-1.039431e-18
-4.867366e-19
-2.309844e-19
-1.082579e-19
-5.177292e-20
-1.542207e-20
-1.100869e-21
-5.544613e-22
-4.984291e-22
-3.404115e-22
-1.740141e-22
-7.778083e-23
-2.722760e-23
-2.477714e-24
2.181160e-25
1.660707e-25
1.000000e+00
1.000000e+00
1.000000e+00
1.000000e+00
1.000000e+00
1.000000e+00
1.000000e+00
1.000000e+00
9.999995e-01
9.999970e-01
9.999972e-01
9.999723e-01
9.999509e-01
9.975023e-01
9.896795e-01
9.671872e-01
9.135177e-01
8.160818e-01
7.166767e-01
5.215317e-01
4.107738e-01
2.331819e-01
1.463109e-01
7.659605e-02
3.642150e-02
1.520637e-02
5.247409e-03
1.314634e-03
2.945362e-04
9.978817e-05
8.369393e-05
6.159056e-05
2.955449e-05
7.801114e-06
9.287437e-07
6.817210e-07
2.964999e-07
1.592270e-07
1.184885e-07
7.554322e-08
3.709491e-08
1.803252e-08
6.827525e-09
1.181195e-09
1.693355e-10
1.247378e-10
7.067295e-11
5.205015e-11
3.189417e-11
1.210824e-11
1.971546e-12
1.402109e-13
2.048592e-13
5.579165e-14
2.366024e-14
1.135323e-14
4.533504e-15
2.769816e-15
1.203638e-15
5.680706e-16
4.404702e-16
2.541000e-16
1.102614e-16
4.641767e-17
1.941043e-17
8.511519e-18
2.532635e-18
-2.980058e-20
-6.729348e-20
-4.724904e-20
-2.644962e-20
-6.680063e-21
-5.366609e-22
-2.159922e-22
-1.621327e-22
-7.800155e-23
-5.971304e-23
-3.701044e-23
-1.776235e-23
-7.804650e-24
1.000000e+00
1.000000e+00
1.000000e+00
1.000000e+00
1.000000e+00
1.000000e+00
1.000000e+00
1.000000e+00
1.000000e+00
9.999984e-01
9.999984e-01
9.999867e-01
9.999860e-01
9.996152e-01
9.969564e-01
9.879747e-01
9.629988e-01
9.062561e-01
8.112754e-01
7.119885e-01
5.210699e-01
4.143609e-01
2.385392e-01
1.468852e-01
7.670477e-02
3.693263e-02
1.602474e-02
5.925318e-03
1.809061e-03
4.289550e-04
9.175437e-05
6.104136e-05
4.706008e-05
3.087864e-05
1.466100e-05
5.573840e-06
2.489920e-06
7.806131e-07
1.281817e-07
6.336077e-08
3.507451e-08
1.826776e-08
1.393726e-08
8.690097e-09
4.316463e-09
1.512471e-09
1.534660e-10
2.714138e-11
3.072373e-11
2.486622e-11
1.577826e-11
7.608412e-12
3.480582e-12
1.632838e-12
7.433493e-13
3.331316e-13
1.493505e-13
6.927169e-14
2.245098e-14
2.350376e-15
7.665826e-17
1.346600e-16
4.894457e-17
4.183149e-17
1.375545e-17
8.183646e-18
6.518434e-18
3.788796e-18
9.930728e-19
-4.314102e-20
-3.616644e-20
-2.746468e-20
-1.394113e-20
-6.276224e-21
-2.358152e-21
-4.095136e-22
-3.492790e-23
-3.238643e-23
-1.328444e-23
-7.307402e-24
1.000000e+00
1.000000e+00
1.000000e+00
1.000000e+00
1.000000e+00
1.000000e+00
1.000000e+00
1.000000e+00
1.000000e+00
9.999994e-01
9.999995e-01
9.999938e-01
9.999917e-01
9.999841e-01
9.993647e-01
9.962271e-01
9.860088e-01
9.586339e-01
8.993302e-01
8.088388e-01
7.067172e-01
5.196619e-01
4.154365e-01
2.429142e-01
1.590758e-01
8.336254e-02
4.025533e-02
1.764314e-02
6.886341e-03
2.326939e-03
6.578942e-04
1.595220e-04
5.802226e-05
3.645296e-05
2.292178e-05
1.060313e-05
4.098854e-06
2.586383e-06
1.481556e-06
7.447544e-07
2.984386e-07
7.138410e-08
1.214250e-08
7.920325e-09
4.407002e-09
3.550010e-09
2.193135e-09
8.533414e-10
1.417880e-10
1.943812e-11
8.540339e-12
6.126775e-12
1.668755e-12
1.530182e-12
5.719859e-13
2.705156e-13
1.081268e-13
7.005664e-14
5.366393e-14
3.135488e-14
1.426549e-14
6.269798e-15
2.794979e-15
1.298964e-15
4.392885e-16
5.027276e-17
5.038046e-18
4.541985e-18
3.632737e-18
1.973906e-18
8.560153e-19
3.795881e-19
9.776886e-20
-6.403351e-21
-4.561483e-21
-2.983820e-21
-1.451768e-21
-6.680698e-22
-3.148598e-22
-1.230352e-22
1.000000e+00
1.000000e+00
1.000000e+00
1.000000e+00
1.000000e+00
1.000000e+00
1.000000e+00
1.000000e+00
1.000000e+00
9.999997e-01
9.999998e-01
9.999981e-01
9.999940e-01
9.999941e-01
9.999382e-01
9.991190e-01
9.953380e-01
9.838013e-01
9.547166e-01
8.885244e-01
8.115458e-01
7.049446e-01
5.184880e-01
4.165055e-01
2.444382e-01
1.648697e-01
8.847305e-02
4.338716e-02
1.930664e-02
7.729358e-03
2.726424e-03
8.201704e-04
2.214920e-04
7.420639e-05
4.186251e-05
2.775503e-05
1.307675e-05
3.372338e-06
1.316196e-06
7.084261e-07
5.777088e-07
3.692555e-07
1.925442e-07
6.823441e-08
1.069972e-08
3.319241e-09
2.033527e-09
1.677103e-09
1.067243e-09
5.169511e-10
2.377171e-10
1.098419e-10
5.147952e-11
2.324477e-11
1.073041e-11
5.081889e-12
1.771329e-12
2.237210e-13
5.245565e-14
2.780668e-14
6.055430e-15
3.150619e-15
2.399784e-15
1.317194e-15
1.033512e-15
5.970700e-16
1.572304e-16
2.905806e-18
3.378830e-18
-6.875866e-19
3.504006e-19
3.627123e-19
2.983225e-19
1.772449e-19
8.094527e-20
3.564480e-20
1.541077e-20
6.568260e-21
2.724432e-21
1.213390e-21
1.000000e+00
1.000000e+00
1.000000e+00
1.000000e+00
1.000000e+00
1.000000e+00
1.000000e+00
1.000000e+00
1.000000e+00
9.999999e-01
9.999998e-01
9.999998e-01
9.999968e-01
9.999956e-01
9.999947e-01
9.998361e-01
9.989882e-01
9.937629e-01
9.846220e-01
9.403104e-01
8.937651e-01
7.989740e-01
7.032525e-01
5.214219e-01
4.170533e-01
2.477620e-01
1.704271e-01
9.361342e-02
4.703035e-02
2.141122e-02
8.809351e-03
3.216883e-03
1.011570e-03
2.705907e-04
7.370082e-05
3.862820e-05
2.966169e-05
1.965081e-05
9.226225e-06
3.137241e-06
5.783168e-07
3.707153e-07
1.920419e-07
1.563999e-07
9.916865e-08
4.043397e-08
8.886268e-09
1.264793e-09
9.950664e-10
3.881748e-10
1.503079e-10
8.812501e-11
4.161138e-11
2.260938e-11
1.057454e-11
5.128138e-12
4.131396e-12
2.505959e-12
1.139169e-12
5.112690e-13
2.353404e-13
1.125247e-13
3.693005e-14
5.660173e-15
9.104923e-16
7.790724e-16
5.937357e-16
3.028520e-16
1.363817e-16
6.537822e-17
2.082007e-17
1.523489e-18
-9.493826e-21
1.295055e-19
9.422983e-21
2.310763e-21
1.952476e-21
-4.222160e-23
9.030824e-22
9.100070e-22
1.000000e+00
1.000000e+00
1.000000e+00
1.000000e+00
1.000000e+00
1.000000e+00
1.000000e+00
1.000000e+00
1.000000e+00
1.000000e+00
9.999999e-01
9.999999e-01
9.999992e-01
9.999968e-01
9.999997e-01
9.999258e-01
9.999177e-01
9.968888e-01
9.968114e-01
9.755495e-01
9.436486e-01
8.871839e-01
7.906894e-01
7.010238e-01
5.218718e-01
4.173342e-01
2.502401e-01
1.743192e-01
9.757738e-02
5.027717e-02
2.345760e-02
9.941353e-03
3.803895e-03
1.286066e-03
3.691075e-04
8.353269e-05
2.995803e-05
1.982281e-05
1.472544e-05
1.002624e-05
5.282646e-06
1.966446e-06
5.253809e-07
1.627745e-07
1.006733e-07
7.719258e-08
4.954410e-08
2.507886e-08
1.164413e-08
5.671480e-09
2.694625e-09
1.258351e-09
5.883505e-10
2.856758e-10
9.918911e-11
1.474571e-11
2.638508e-12
2.111113e-12
8.891120e-13
4.051355e-13
1.845343e-13
1.074425e-13
8.811089e-14
4.862783e-14
1.331282e-14
7.232952e-16
5.837600e-16
3.082545e-16
1.151128e-16
6.668661e-17
5.219371e-17
3.078212e-17
1.380099e-17
6.183649e-18
2.826040e-18
1.289026e-18
5.833370e-19
2.647628e-19
1.180597e-19
5.497408e-20
1.000000e+00
1.000000e+00
1.000000e+00
1.000000e+00
1.000000e+00
1.000000e+00
1.000000e+00
1.000000e+00
1.000000e+00
1.000000e+00
1.000000e+00
9.999999e-01
9.999999e-01
9.999983e-01
9.999984e-01
9.999662e-01
9.999848e-01
9.986430e-01
9.986761e-01
9.925269e-01
9.749125e-01
9.412261e-01
8.823397e-01
7.836663e-01
6.994266e-01
5.244010e-01
4.205581e-01
2.545402e-01
1.789712e-01
1.013993e-01
5.352069e-02
2.546538e-02
1.098886e-02
4.327708e-03
1.561246e-03
5.119464e-04
1.495428e-04
4.538363e-05
1.905065e-05
1.196564e-05
8.013961e-06
4.349039e-06
2.370716e-06
1.173949e-06
4.357030e-07
8.006508e-08
4.519636e-08
2.545891e-08
1.102709e-08
4.658148e-09
2.454545e-09
1.019065e-09
5.623848e-10
2.837874e-10
2.338978e-10
1.433300e-10
6.865848e-11
3.196765e-11
1.459264e-11
7.022132e-12
2.368615e-12
4.127963e-13
8.819357e-14
7.226410e-14
5.297279e-14
2.694641e-14
1.230930e-14
6.061908e-15
1.957660e-15
1.825787e-16
4.184843e-17
2.929712e-17
1.348965e-17
5.709590e-18
2.915623e-18
7.366144e-19
4.029749e-19
1.761669e-19
1.032719e-19
5.377228e-20
1.000000e+00
1.000000e+00
1.000000e+00
1.000000e+00
1.000000e+00
1.000000e+00
1.000000e+00
1.000000e+00
1.000000e+00
1.000000e+00
1.000000e+00
1.000000e+00
1.000000e+00
9.999992e-01
9.999992e-01
9.999846e-01
9.999882e-01
9.993874e-01
9.993676e-01
9.979722e-01
9.905113e-01
9.730553e-01
9.372768e-01
8.797103e-01
7.715134e-01
6.917959e-01
5.232398e-01
4.221524e-01
2.585337e-01
1.839761e-01
1.048175e-01
5.699350e-02
2.781944e-02
1.219307e-02
4.822366e-03
1.738461e-03
5.745461e-04
1.813806e-04
6.007555e-05
2.368984e-05
1.261926e-05
7.829495e-06
3.661797e-06
1.699698e-06
1.065542e-06
6.688669e-07
3.349120e-07
1.736527e-07
8.552623e-08
4.413633e-08
2.147367e-08
1.075633e-08
4.325249e-09
9.557504e-10
2.517686e-10
1.236313e-10
7.014796e-11
2.696281e-11
1.258073e-11
7.060560e-12
5.776089e-12
3.167028e-12
9.319231e-13
7.565222e-14
3.905037e-14
2.757872e-14
1.036742e-14
6.015087e-15
4.772733e-15
2.937496e-15
1.339732e-15
6.109414e-16
2.778653e-16
1.267834e-16
5.926977e-17
2.682370e-17
1.216195e-17
5.659709e-18
1.782394e-18
2.485037e-19
1.000000e+00
1.000000e+00
1.000000e+00
1.000000e+00
1.000000e+00
1.000000e+00
1.000000e+00
1.000000e+00
1.000000e+00
1.000000e+00
1.000000e+00
1.000000e+00
1.000000e+00
9.999996e-01
9.999996e-01
9.999929e-01
9.999929e-01
9.997684e-01
9.995560e-01
9.994586e-01
9.969676e-01
9.892420e-01
9.704427e-01
9.337890e-01
8.782775e-01
7.661817e-01
6.868986e-01
5.219505e-01
4.232595e-01
2.619322e-01
1.899181e-01
1.067526e-01
5.990131e-02
3.034206e-02
1.378216e-02
5.605903e-03
2.043690e-03
6.761225e-04
2.127305e-04
7.097945e-05
2.697603e-05
1.357712e-05
9.793011e-06
4.430546e-06
1.471062e-06
6.141341e-07
3.440976e-07
1.755349e-07
7.994498e-08
3.849353e-08
2.174400e-08
1.084373e-08
8.719414e-09
5.615004e-09
2.844826e-09
1.359367e-09
6.631138e-10
3.163601e-10
1.076070e-10
2.247227e-11
5.360901e-12
4.810955e-12
3.351786e-12
1.824019e-12
8.173023e-13
4.054760e-13
1.358040e-13
1.822221e-14
4.557401e-15
2.325889e-15
8.148965e-16
4.241642e-16
2.773428e-16
1.098394e-16
5.416991e-17
2.728621e-17
1.189266e-17
5.816110e-18
4.707182e-18
2.433153e-18
1.000000e+00
1.000000e+00