# vtk DataFile Version 3.0
MUSCL
ASCII
DATASET STRUCTURED_POINTS
DIMENSIONS 80 80 1
ORIGIN 0 0 0
SPACING 0.0125 0.0125 1
POINT_DATA 6400
SCALARS Temperature double 1
LOOKUP_TABLE default
0.000000e+00
-6.739993e-01
-1.939396e-01
-2.456598e-02
-3.482177e-04
5.518805e-05
4.269687e-07
-5.444156e-07
-2.710068e-07
-1.188209e-07
-5.175668e-08
-2.196831e-08
-9.250087e-09
-3.983465e-09
-1.571774e-09
-6.049967e-10
-2.669708e-11
1.255586e-12
1.638829e-12
5.942711e-13
2.690278e-13
1.365905e-13
5.726878e-14
2.125646e-14
7.263764e-15
2.365760e-15
7.637547e-16
2.549195e-16
9.186219e-17
3.437271e-17
1.216060e-17
3.671496e-18
8.234344e-19
1.542967e-19
2.467259e-20
3.452499e-21
4.642408e-22
9.124557e-23
7.988930e-23
1.104165e-22
9.595944e-23
1.208316e-23
-2.044734e-26
-1.822986e-24
-1.466533e-24
-8.060414e-25
-4.477528e-25
-2.411273e-25
-1.236701e-25
-6.050558e-26
-2.869508e-26
-4.455916e-27
-6.152578e-29
6.358406e-29
2.731146e-29
1.261675e-29
5.924767e-30
2.505774e-30
9.471987e-31
3.250283e-31
1.039329e-31
3.206063e-32
1.062959e-32
2.311071e-33
4.553387e-35
-9.228766e-38
-4.944702e-36
-2.892144e-36
4.353608e-38
1.246017e-38
1.013849e-38
4.199146e-39
1.382087e-39
4.236593e-40
1.395253e-40
5.682134e-41
2.938123e-41
1.716707e-41
9.033521e-42
5.336426e-42
1.326001e+00
6.739993e-01
1.939396e-01
2.456598e-02
3.482177e-04
-5.518805e-05
-4.269687e-07
5.444156e-07
2.710068e-07
1.188209e-07
5.175668e-08
2.196831e-08
9.250087e-09
3.983465e-09
1.571774e-09
6.049967e-10
2.669708e-11
-1.255586e-12
-1.638829e-12
-5.942711e-13
-2.690278e-13
-1.365905e-13
-5.726878e-14
-2.125646e-14
-7.263764e-15
-2.365760e-15
-7.637547e-16
-2.549195e-16
-9.186219e-17
-3.437271e-17
-1.216060e-17
-3.671496e-18
-8.234344e-19
-1.542967e-19
-2.467259e-20
-3.452499e-21
-4.642408e-22
-9.124557e-23
-7.988930e-23
-1.104165e-22
-9.595944e-23
-1.208316e-23
2.044734e-26
1.822986e-24
1.466533e-24
8.060414e-25
4.477528e-25
2.411273e-25
1.236701e-25
6.050558e-26
2.869508e-26
4.455916e-27
6.152578e-29
-6.358406e-29
-2.731146e-29
-1.261675e-29
-5.924767e-30
-2.505774e-30
-9.471987e-31
-3.250283e-31
-1.039329e-31
-3.206063e-32
-1.062959e-32
-2.311071e-33
-4.553387e-35
9.228766e-38
4.944702e-36
2.892144e-36
-4.353608e-38
-1.246017e-38
-1.013849e-38
-4.199146e-39
-1.382087e-39
-4.236593e-40
-1.395253e-40
-5.682134e-41
-2.938123e-41
-1.716707e-41
-9.033521e-42
-5.336426e-42
1.041958e+00
9.580417e-01
5.985550e-01
2.398158e-01
5.880193e-02
3.930557e-03
1.311491e-04
-2.761366e-05
-2.047827e-05
-9.822336e-06
-4.344500e-06
-1.857964e-06
-7.714407e-07
-1.938139e-07
-1.745767e-09
9.779736e-10
7.859777e-10
2.610969e-10
2.902838e-12
-8.743661e-13
-3.819619e-13
1.447459e-13
1.686988e-13
7.475213e-14
2.673672e-14
9.176607e-15
2.791895e-15
6.828166e-16
1.062200e-16
-1.319794e-17
-1.137599e-17
-2.077809e-18
-7.123075e-19
-5.204166e-20
3.485857e-20
2.296796e-20
1.173358e-20
6.373998e-21
3.481056e-21
1.118666e-21
-1.849538e-23
-5.029593e-23
-2.038055e-22
-2.377813e-22
-1.647614e-22
-8.848648e-23
-4.701744e-23
-2.440204e-23
-1.288155e-23
-4.369246e-24
-1.486615e-25
-1.013103e-27
1.677615e-26
7.801840e-27
2.976779e-27
1.277394e-27
5.522250e-28
2.254204e-28
8.589657e-29
3.085223e-29
1.085414e-29
2.810127e-30
3.789718e-31
-6.648735e-33
-3.560960e-33
-1.837454e-33
-7.586817e-34
-1.152881e-34
3.982118e-36
3.721771e-36
1.833456e-36
7.425342e-37
2.679345e-37
8.916653e-38
2.906449e-38
1.024338e-38
4.311826e-39
2.181141e-39
1.133821e-39
6.255504e-40
1.000268e+00
9.997321e-01
8.846252e-01
5.931596e-01
2.706308e-01
8.387313e-02
1.643821e-02
1.320718e-03
5.012322e-04
2.104657e-04
7.646497e-05
9.917890e-06
-1.297352e-06
-7.267604e-07
-4.190827e-07
-1.497873e-07
-8.229059e-09
1.562775e-11
4.892913e-10
1.326464e-10
-4.969645e-13
-3.397110e-13
-4.180465e-13
-3.879649e-13
-1.851385e-13
-7.868270e-14
-2.978644e-14
-5.377983e-15
9.568443e-17
-1.031522e-16
-1.086601e-16
-5.596754e-17
-2.222404e-17
-9.519770e-18
-4.450852e-18
-2.203183e-18
-1.118447e-18
-5.383401e-19
-1.164257e-19
7.921762e-22
1.387888e-21
7.003999e-22
9.062838e-23
-1.771873e-22
-1.557382e-22
4.762647e-23
1.372272e-23
-8.455672e-24
-1.164761e-23
-1.022705e-23
-6.340319e-24
-3.056341e-24
-1.396309e-24
-6.266388e-25
-2.682127e-25
-1.091518e-25
-4.227200e-26
-1.568948e-26
-5.493450e-27
-1.385676e-27
-1.018880e-28
1.030018e-29
4.058451e-30
1.533766e-30
5.603750e-31
1.360470e-31
2.489704e-34
-5.609631e-34
-5.635497e-34
-3.255142e-34
-1.401323e-34
-5.194304e-35
-1.793366e-35
-6.182938e-36
-2.222795e-36
-8.550761e-37
-3.570440e-37
-1.613861e-37
-7.437415e-38
-4.232346e-38
9.999006e-01
1.000099e+00
9.862876e-01
8.523280e-01
5.809032e-01
2.960366e-01
9.891784e-02
2.196570e-02
6.603213e-04
2.170197e-04
1.442635e-04
9.273236e-05
4.180468e-05
7.735011e-06
-2.441314e-07
-3.144372e-07
-2.152970e-07
-6.314065e-08
-1.544951e-10
5.012093e-10
4.398816e-10
2.001164e-10
8.395246e-11
3.489651e-11
1.261069e-11
2.087376e-12
-2.165814e-14
-2.396705e-14
-9.720708e-15
1.889392e-16
-6.628614e-17
-3.187947e-17
-2.034040e-17
3.267032e-17
8.275006e-18
-1.187446e-18
-1.095460e-18
-8.448967e-19
-5.933086e-19
-3.317348e-19
-1.559806e-19
-7.279097e-20
-3.411400e-20
-1.637015e-20
-7.957815e-21
-3.922817e-21
-1.930851e-21
-5.592957e-22
-2.038541e-23
-8.676814e-24
5.436134e-24
-2.246070e-24
-1.373256e-24
-5.569436e-25
-1.987953e-25
-5.664968e-26
-2.596391e-26
-1.495926e-26
-9.002103e-27
-4.865918e-27
-2.315815e-27
-8.492820e-28
-3.013995e-28
-7.801702e-29
-4.660503e-30
2.090147e-31
2.670523e-31
1.245661e-31
5.206378e-32
2.121302e-32
8.288105e-33
3.109490e-33
1.132131e-33
4.061714e-34
1.465381e-34
5.449848e-35
2.129250e-35
8.819356e-36
4.087075e-36
1.613930e-36
9.999735e-01
1.000027e+00
9.998172e-01
9.650933e-01
8.295560e-01
5.645187e-01
3.366287e-01
1.267727e-01
3.477944e-02
2.657535e-03
1.100148e-04
7.077477e-05
6.452104e-05
4.587034e-05
1.961204e-05
3.574242e-06
-3.186942e-07
-1.968312e-07
-1.188188e-07
-5.230042e-08
-2.265487e-08
-9.795067e-09
-3.367528e-09
-1.866173e-10
1.014454e-11
1.403923e-11
5.226134e-12
7.783534e-14
-8.610840e-14
-2.432260e-14
-1.163435e-14
-5.551639e-15
-2.607980e-15
-1.190942e-15
-5.482576e-16
-1.640850e-16
-4.187700e-18
1.557062e-18
6.240030e-19
-9.312201e-20
-9.792993e-20
-4.640927e-20
-2.382311e-20
-1.419429e-20
1.041821e-20
-3.590287e-22
-1.649521e-21
-1.689896e-21
-1.268528e-21
-5.525884e-22
-2.528640e-22
-1.132552e-22
-5.118610e-23
-2.310085e-23
-1.024991e-23
-4.500659e-24
-1.551529e-24
-2.441105e-25
1.005097e-26
-2.890183e-27
-2.242255e-27
-4.815143e-28
-3.384069e-28
-2.290034e-28
-1.143839e-28
-4.321510e-29
-1.707322e-29
-7.086061e-30
-2.952671e-30
-1.198804e-30
-4.702518e-31
-1.786901e-31
-6.625775e-32
-2.421376e-32
-8.831823e-33
-3.251018e-33
-1.249446e-33
-5.114183e-34
-8.913595e-35
-1.417893e-36
9.999963e-01
1.000004e+00
1.000046e+00
9.983678e-01
9.484118e-01
8.110520e-01
5.426846e-01
3.576493e-01
1.478900e-01
5.006779e-02
9.514769e-03
1.607149e-04
4.959964e-05
4.085376e-05
3.463803e-05
2.229288e-05
1.138808e-05
4.835509e-06
2.012763e-06
7.759514e-07
1.351599e-07
-8.013604e-09
-7.648500e-09
-4.940526e-09
-1.319159e-09
-7.072942e-12
1.169336e-11
9.408693e-12
3.967186e-12
1.687822e-12
7.526322e-13
3.375455e-13
1.450732e-13
5.396909e-14
4.432415e-15
-4.960381e-16
-2.990986e-16
-1.382722e-16
-5.924795e-17
-2.580338e-17
-1.132609e-17
-5.023157e-18
-2.264982e-18
-9.968896e-19
-4.367250e-19
-1.089119e-19
-3.825997e-21
-1.690219e-21
-1.195001e-21
-2.729651e-22
-1.574352e-22
-7.607800e-23
-4.642469e-23
-2.421497e-24
-6.418122e-24
-4.524917e-24
-3.444805e-24
-2.010543e-24
-8.849132e-25
-3.506927e-25
-1.203411e-25
-2.030510e-26
-5.788516e-28
-3.792908e-29
-4.526566e-29
-3.439502e-29
-1.598879e-29
-2.895250e-30
1.849303e-31
-5.085009e-32
-1.277697e-31
-7.506842e-32
-4.033893e-32
-1.947108e-32
-8.679288e-33
-3.180795e-33
-1.213768e-33
-5.689194e-34
-4.265912e-34
-2.260350e-34
9.999988e-01
1.000001e+00
1.000009e+00
1.000120e+00
9.919110e-01
9.348857e-01
7.950535e-01
5.168856e-01
3.729654e-01
1.555435e-01
5.832915e-02
1.610842e-02
2.113792e-03
2.372910e-05
2.774788e-05
2.186433e-05
1.157191e-05
4.608892e-06
2.002499e-06
1.140252e-06
8.243193e-07
3.448192e-07
4.752200e-08
-3.664423e-09
-4.221639e-09
-2.476775e-09
-1.058338e-09
-4.562309e-10
-1.975847e-10
-8.601523e-11
-3.709188e-11
-8.250456e-12
2.027755e-13
9.404285e-14
6.406356e-14
2.930790e-14
1.290917e-14
5.701723e-15
2.515256e-15
1.110689e-15
4.997569e-16
2.047485e-16
5.234190e-17
2.177933e-19
-5.783902e-19
-4.490796e-19
-2.383642e-19
-8.452491e-20
-3.031013e-20
-1.214469e-20
-5.422254e-21
-2.551231e-21
-1.165202e-21
-5.483420e-22
-1.632203e-22
-1.084520e-23
-1.012965e-24
-1.705756e-24
-7.960870e-25
-3.583440e-25
-2.308936e-25
-1.351746e-25
-5.877009e-26
-2.278105e-26
-8.999091e-27
-3.657116e-27
-1.525133e-27
-6.420869e-28
-2.701470e-28
-1.126275e-28
-4.590510e-29
-1.819626e-29
-6.900640e-30
-2.532871e-30
-9.207083e-31
-3.319237e-31
-7.999410e-32
-2.205831e-33
-1.478684e-34
-2.329749e-35
9.999996e-01
1.000000e+00
1.000000e+00
1.000031e+00
1.000057e+00
9.850915e-01
9.217927e-01
7.795165e-01
5.212643e-01
3.784135e-01
1.649824e-01
6.670369e-02
2.046572e-02
4.218113e-03
3.849636e-04
8.001668e-05
4.775173e-05
2.601559e-05
9.555410e-06
2.149804e-06
8.195947e-07
6.756212e-07
4.179618e-07
2.088201e-07
8.685318e-08
3.645839e-08
1.531037e-08
6.693608e-09
1.940160e-09
-4.656658e-11
-4.399831e-11
-3.538757e-11
-1.952963e-11
-8.668304e-12
-3.770098e-12
-1.637732e-12
-7.101330e-13
-3.057612e-13
-1.329368e-13
-5.190006e-14
-8.780695e-15
1.346115e-16
1.986676e-16
1.164450e-16
2.975198e-17
-3.720720e-19
-2.682662e-19
-1.264038e-19
-3.009717e-20
-8.811026e-21
-4.799826e-21
-1.610434e-21
-4.466806e-22
-5.666557e-22
-4.509148e-22
-2.551848e-22
-1.085771e-22
-4.491328e-23
-1.756888e-23
-3.417827e-24
-2.288914e-25
-1.363446e-25
-5.628468e-26
3.840261e-27
-7.697790e-27
-2.046344e-27
-2.588489e-28
-4.336800e-29
-6.545799e-29
-5.443888e-29
-3.469353e-29
3.258973e-29
6.076333e-30
2.386433e-30
4.406498e-31
-1.091129e-31
-1.563552e-31
-1.153448e-31
-5.478093e-32
-2.824930e-32
9.999998e-01
1.000000e+00
1.000000e+00
1.000013e+00
1.000016e+00
9.988614e-01
9.786044e-01
9.079444e-01
7.697984e-01
5.221326e-01
3.810601e-01
1.771640e-01
7.564369e-02
2.537186e-02
5.901610e-03
4.447467e-04
2.411137e-05
3.069993e-05
2.520294e-05
1.366581e-05
3.809168e-06
6.675202e-07
4.161013e-07
2.142382e-07
8.673982e-08
3.421778e-08
1.347757e-08
6.869104e-09
5.275771e-09
3.034925e-09
1.291521e-09
5.315313e-10
2.134712e-10
8.484503e-11
3.354757e-11
1.315344e-11
5.346889e-12
1.424452e-12
-9.548671e-14
-8.222941e-14
-5.683308e-14
-2.315514e-14
-2.430643e-15
7.837192e-17
1.112429e-16
4.805643e-17
2.411375e-18
-2.612065e-19
-2.730266e-19
-1.404457e-19
-6.235069e-20
-2.030197e-20
-3.554204e-21
2.580589e-21
3.589354e-21
2.070086e-21
3.735776e-22
-3.859357e-23
-3.291873e-23
-1.989895e-23
-8.876404e-24
-3.904902e-24
-1.354963e-24
-6.852870e-25
-3.271365e-25
-1.509835e-25
-6.943328e-26
-3.169873e-26
-1.416999e-26
-6.132890e-27
-2.594006e-27
-1.088924e-27
-4.133363e-28
-1.563999e-28
-4.792155e-29
-5.848158e-30
-1.950720e-31
2.953960e-32
5.736227e-33
-1.133890e-32
9.999999e-01
1.000000e+00
1.000000e+00
1.000003e+00
1.000014e+00
1.000017e+00
9.972110e-01
9.709615e-01
8.969190e-01
7.615596e-01
5.236623e-01
3.740881e-01
1.874496e-01
8.578027e-02
3.196871e-02
8.892402e-03
1.239635e-03
1.984843e-05
2.490427e-05
2.156457e-05
1.564669e-05
6.634664e-06
1.821787e-06
6.594763e-07
3.926724e-07
2.210733e-07
9.841571e-08
2.532275e-08
4.735640e-09
2.470410e-09
9.946113e-10
3.349377e-10
1.722420e-10
5.791362e-11
2.993733e-11
7.019089e-12
5.165474e-12
4.026483e-12
2.239453e-12
4.933979e-13
-5.189545e-14
-4.470968e-14
-3.148972e-14
-1.052059e-14
-4.170251e-16
1.319465e-16
8.275245e-17
3.875372e-17
1.660984e-17
6.551908e-18
1.333978e-18
-3.095537e-20
-1.897961e-20
-7.088890e-21
5.465035e-22
2.401900e-21
2.404711e-21
1.428783e-21
6.499056e-22
1.978222e-22
1.076487e-23
-4.747447e-24
-3.226707e-24
-1.350981e-24
9.315768e-26
2.373507e-25
1.147601e-25
3.058184e-26
1.273433e-27
-4.631004e-27
-2.537388e-27
-9.997923e-28
-3.530134e-28
-1.478309e-28
-9.879356e-29
-5.081375e-29
-1.958220e-29
-7.776206e-30
-3.515072e-30
-1.111990e-30
9.999999e-01
1.000000e+00
1.000000e+00
1.000000e+00
1.000008e+00
1.000010e+00
1.000013e+00
9.942686e-01
9.638688e-01
8.861460e-01
7.588876e-01
5.119070e-01
3.893235e-01
1.920923e-01
9.237640e-02
3.718787e-02
1.167863e-02
2.303811e-03
6.166633e-05
1.769919e-05
1.591903e-05
1.297657e-05
7.146691e-06
1.963586e-06
3.820971e-07
2.219181e-07
1.810840e-07
1.198079e-07
6.224587e-08
3.045473e-08
1.431161e-08
6.833996e-09
3.121073e-09
1.430364e-09
6.620005e-10
2.264317e-10
2.805107e-11
3.251391e-12
2.859221e-12
2.100291e-12
1.018257e-12
2.061655e-13
-2.993257e-14
-2.596147e-14
-1.562324e-14
-7.052167e-15
-3.107973e-15
-8.011695e-16
3.155087e-18
9.218254e-18
6.977549e-18
3.431823e-18
1.492053e-18
6.157508e-19
1.372979e-19
3.540130e-22
1.591902e-21
1.095282e-21
7.640964e-22
5.672030e-22
3.342679e-22
9.333624e-23
-1.901564e-24
-2.582958e-24
-1.633290e-25
-8.720057e-26
2.925833e-26
-3.337420e-26
-1.469580e-26
-1.521515e-26
-1.484493e-26
-8.824534e-27
-4.713948e-27
-1.516568e-27
-1.075334e-28
-3.864694e-29
-1.256041e-29
-7.831776e-30
-1.491560e-30
-6.626400e-31
1.000000e+00
1.000000e+00
1.000000e+00
1.000000e+00
1.000002e+00
1.000007e+00
1.000010e+00
9.997446e-01
9.914543e-01
9.548556e-01
8.817847e-01
7.454610e-01
5.159580e-01
3.938308e-01
1.986394e-01
9.889709e-02
4.197816e-02
1.453899e-02
3.632157e-03
3.433223e-04
1.860618e-05
1.627192e-05
1.298091e-05
9.530163e-06
3.946707e-06
7.545984e-07
1.789246e-07
7.893150e-08
4.088291e-08
2.587387e-08
1.091852e-08
5.847527e-09
2.469425e-09
1.422547e-09
6.810070e-10
5.415128e-10
2.990278e-10
7.769097e-11
3.358327e-12
2.133929e-12
1.566641e-12
1.014524e-12
5.380547e-13
2.242471e-13
7.133234e-14
-1.473021e-15
-3.071397e-15
-2.754184e-15
-1.542739e-15
-6.601097e-16
-2.887637e-16
-7.657390e-17
1.083691e-18
8.553128e-19
6.530562e-19
3.173635e-19
1.317466e-19
3.464554e-20
8.817206e-22
3.980152e-22
3.831801e-22
3.254473e-22
1.790193e-22
7.771563e-23
3.315080e-23
1.408083e-23
6.070202e-24
2.646737e-24
1.124808e-24
4.549525e-25
1.540631e-25
2.939831e-26
-4.462499e-27
-3.882638e-27
-2.353253e-27
-1.084151e-27
-5.006831e-28
-2.238804e-28
-9.015683e-29
-2.897770e-29
1.000000e+00
1.000000e+00
1.000000e+00
1.000000e+00
1.000000e+00
1.000002e+00
1.000007e+00
9.999028e-01
9.998620e-01
9.863716e-01
9.508928e-01
8.716212e-01
7.385444e-01
5.162190e-01
3.972415e-01
2.051968e-01
1.051975e-01
4.639323e-02
1.746071e-02
5.017500e-03
6.087142e-04
2.605902e-05
8.233212e-06
9.246976e-06
8.100208e-06
5.228587e-06
2.548050e-06
1.226540e-06
5.992210e-07
2.888841e-07
1.391167e-07
6.569184e-08
3.238887e-08
1.178395e-08
2.253419e-09
5.189989e-10
4.377632e-10
3.190380e-10
1.480604e-10
3.537955e-11
1.485079e-12
8.732478e-13
1.067986e-14
1.960620e-13
1.590624e-13
9.719307e-14
4.426631e-14
1.865723e-14
5.659848e-15
-2.599982e-16
-3.372277e-16
-2.624364e-16
-1.469753e-16
-5.842468e-17
-1.237635e-17
4.432195e-19
2.235515e-19
1.376836e-19
7.156844e-20
1.568980e-20
-1.160195e-22
2.771854e-22
8.061209e-24
1.627693e-24
1.798294e-23
8.048057e-24
3.725687e-24
2.937902e-25
3.071284e-25
3.960363e-25
3.052477e-25
1.656376e-25
7.267596e-26
2.136152e-26
5.587297e-27
6.809447e-28
-3.220826e-28
-2.190840e-28
-8.023596e-29
-1.752782e-29
1.000000e+00
1.000000e+00
1.000000e+00
1.000000e+00
1.000000e+00
1.000000e+00
1.000005e+00
9.999622e-01
1.000033e+00
9.976898e-01
9.839002e-01
9.447840e-01
8.635840e-01
7.327364e-01
5.158289e-01
4.002510e-01
2.115974e-01
1.117212e-01
5.057150e-02
2.041008e-02
7.052360e-03
1.764026e-03
2.214347e-04
1.665060e-05
-2.258583e-06
1.558768e-06
8.532870e-07
6.110889e-07
4.254129e-07
2.896358e-07
5.837596e-08
5.740674e-08
3.086645e-08
2.648277e-08
1.582651e-08
5.082122e-09
4.274379e-10
3.068042e-10
2.375231e-10
1.593920e-10
7.814734e-11
3.567646e-11
1.338101e-11
1.854337e-12
1.335506e-13
6.589365e-14
3.247211e-14
1.893055e-14
1.375083e-14
8.221126e-15
3.703238e-15
1.204495e-15
-9.224129e-17
-8.723988e-17
-6.303802e-17
-2.813398e-17
-6.057681e-18
2.130390e-19
1.128572e-19
8.064687e-20
3.727250e-20
1.615920e-20
7.124767e-21
3.123583e-21
1.362963e-21
6.014734e-22
2.643178e-22
1.085068e-22
2.901359e-23
1.233475e-24
1.391642e-25
-2.582141e-26
3.006017e-27
1.111567e-26
5.738131e-27
-3.523415e-28
-2.376063e-27
-1.949099e-27
-9.393268e-28
-3.881095e-28
1.000000e+00
1.000000e+00
1.000000e+00
1.000000e+00
1.000000e+00
1.000000e+00
1.000002e+00
9.999853e-01
9.999957e-01
9.999725e-01
9.962732e-01
9.803082e-01
9.387875e-01
8.560208e-01
7.277590e-01
5.150617e-01
4.023229e-01
2.167384e-01
1.189932e-01
5.371381e-02
2.140758e-02
7.355496e-03
2.238446e-03
7.276260e-04
3.159389e-04
1.416807e-04
6.328218e-05
2.837810e-05
1.269980e-05
5.818064e-06
2.749703e-06
8.792613e-07
1.203722e-07
2.779222e-08
2.062081e-08
1.581315e-08
8.102696e-09
2.145684e-09
2.108191e-10
1.523034e-10
6.676956e-11
3.473435e-11
2.780189e-11
1.724377e-11
7.890575e-12
3.631465e-12
1.154024e-12
6.581188e-14
-1.612543e-14
5.246559e-15
3.273134e-15
2.664584e-15
1.805867e-15
4.778307e-16
-5.522786e-17
-4.915987e-17
-3.291683e-17
-1.709687e-17
-7.387645e-18
-3.152786e-18
-1.350106e-18
-5.804113e-19
-2.500014e-19
-1.069998e-19
-4.776681e-20
-1.453921e-20
1.271809e-22
1.607373e-22
1.135740e-22
6.142390e-23
2.627422e-23
1.118184e-23
4.734472e-24
1.991038e-24
9.179646e-25
3.084063e-25
9.631677e-26
2.561544e-26
5.470077e-27
7.959414e-28
1.000000e+00
1.000000e+00
1.000000e+00
1.000000e+00
1.000000e+00
1.000000e+00
1.000001e+00
9.999940e-01
9.999932e-01
9.999995e-01
9.996805e-01
9.948171e-01
9.764952e-01
9.335761e-01
8.477152e-01
7.250946e-01
5.158935e-01
4.044886e-01
2.192323e-01
1.311737e-01
6.153340e-02
2.465433e-02
8.093419e-03
1.887028e-03
3.106627e-04
1.449107e-04
6.271701e-05
2.560072e-05
1.148171e-05
5.277161e-06
2.799696e-06
2.228424e-06
1.217697e-06
3.125587e-07
2.048692e-08
1.296713e-08
1.174095e-08
8.752837e-09
4.475006e-09
2.082576e-09
8.110241e-10
1.592717e-10
2.215764e-11
1.059654e-11
5.381628e-12
3.557663e-12
2.968313e-12
1.795704e-12
8.406334e-13
3.092251e-13
2.463752e-14
-1.618643e-15
1.446517e-15
1.274973e-15
7.749524e-16
3.330218e-16
1.380410e-16
5.534451e-17
2.200202e-17
8.554140e-18
3.243621e-18
1.174762e-18
3.572231e-19
3.995748e-20
-4.604512e-20
-3.812651e-20
-2.232909e-20
-9.826666e-21
-4.253024e-21
-1.814807e-21
-7.705358e-22
-3.257513e-22
-1.349309e-22
-5.306838e-23
-1.911787e-23
-6.140842e-24
-1.694922e-24
-4.111398e-25
-9.176683e-26
-1.947957e-26
1.000000e+00
1.000000e+00
1.000000e+00
1.000000e+00
1.000000e+00
1.000000e+00
1.000000e+00
9.999986e-01
9.999947e-01
9.999965e-01
9.999972e-01
9.992938e-01
9.930251e-01
9.724648e-01
9.302739e-01
8.319604e-01
7.229078e-01
5.195286e-01
4.071277e-01
2.223023e-01
1.368479e-01
6.861737e-02
3.017605e-02
1.136774e-02
3.466280e-03
9.702022e-04
4.521478e-04
2.264945e-04
1.147641e-04
4.024043e-05
7.874164e-06
2.081608e-06
1.829933e-06
1.343694e-06
6.140918e-07
1.347532e-07
1.022345e-08
8.810102e-09
2.965716e-09
2.030061e-09
1.563593e-09
9.879987e-10
4.773424e-10
2.343626e-10
8.258405e-11
1.078439e-11
1.945124e-12
1.268638e-12
8.374498e-13
6.316846e-13
4.436018e-13
1.385957e-13
3.487665e-15
-1.110373e-15
2.479246e-16
-5.866038e-17
3.896734e-17
4.212383e-17
2.132316e-17
-2.718706e-17
-6.362802e-18
-2.087798e-19
5.017876e-19
3.720109e-19
1.671873e-19
4.440181e-20
4.280322e-21
-4.891862e-21
-4.060313e-21
-1.717554e-21
-7.029730e-22
-2.538949e-22
-1.355882e-22
-3.304987e-23
-1.707518e-23
-4.964851e-24
-1.699926e-24
-3.796550e-25
-9.193441e-28
2.518318e-26
1.000000e+00
1.000000e+00
1.000000e+00
1.000000e+00
1.000000e+00
1.000000e+00
1.000000e+00
1.000000e+00
9.999973e-01
9.999963e-01
9.999971e-01
9.999464e-01
9.990080e-01
9.902353e-01
9.712099e-01
9.210368e-01
8.231859e-01
7.195843e-01
5.218574e-01
4.078593e-01
2.281344e-01
1.366411e-01
6.952479e-02
3.126559e-02
1.175396e-02
3.378664e-03
5.528420e-04
2.336984e-04
1.216409e-04
9.967876e-05
5.541325e-05
1.543187e-05
1.996657e-06
1.326980e-06
1.017686e-06
6.766539e-07
3.329470e-07
1.600688e-07
6.268737e-08
1.124779e-08
1.333501e-09
7.950239e-10
2.941087e-10
2.175235e-10
1.896392e-10
1.167596e-10
5.655745e-11
2.229112e-11
3.205017e-12
4.224002e-13
4.403872e-13
3.603575e-13
2.158178e-13
9.705941e-14
4.328866e-14
1.933452e-14
8.702588e-15
3.904087e-15
1.741644e-15
8.189191e-16
2.537995e-16
6.405876e-18
-3.854284e-18
-1.229655e-18
-2.694184e-19
-8.773315e-20
-4.302508e-20
-2.675833e-20
-1.810593e-20
-1.109515e-20
-6.198702e-21
-3.267797e-21
-1.582210e-21
-7.204713e-22
-3.058845e-22
-1.258996e-22
-5.007919e-23
-1.045097e-23
7.698726e-29
4.928867e-26
1.000000e+00
1.000000e+00
1.000000e+00
1.000000e+00
1.000000e+00
1.000000e+00
1.000000e+00
1.000000e+00
9.999995e-01
9.999971e-01
9.999980e-01
9.999742e-01
9.999745e-01
9.975227e-01
9.896771e-01
9.671883e-01
9.135017e-01
8.160484e-01
7.166420e-01
5.215174e-01
4.107881e-01
2.332319e-01
1.463727e-01
7.664423e-02
3.645848e-02
1.521963e-02
5.242907e-03
1.346400e-03
3.006534e-04
1.000429e-04
8.340954e-05
6.103508e-05
2.863793e-05
7.349927e-06
9.647310e-07
5.257244e-07
3.365013e-07
1.611105e-07
1.180936e-07
7.593877e-08
3.608707e-08
1.730197e-08
5.890494e-09
7.814516e-10
1.762959e-10
5.912934e-11
5.157182e-11
4.347763e-11
3.078232e-11
1.044462e-11
1.053953e-12
1.463268e-13
1.684348e-13
6.173774e-14
4.389781e-14
1.345133e-14
7.267013e-15
1.608222e-15
1.642238e-15
9.017347e-16
6.677675e-16
3.962367e-16
1.754702e-16
7.667194e-17
3.333006e-17
1.490914e-17
4.254060e-18
8.729693e-19
6.398461e-19
3.824413e-19
1.657353e-19
6.105366e-20
1.945907e-20
5.742083e-21
1.236201e-21
1.358280e-22
-2.267314e-23
-3.397522e-23
-2.003450e-23
-6.965180e-24
1.000000e+00
1.000000e+00
1.000000e+00
1.000000e+00
1.000000e+00
1.000000e+00
1.000000e+00
1.000000e+00
1.000000e+00
9.999985e-01
9.999988e-01
9.999872e-01
9.999895e-01
9.996228e-01
9.969493e-01
9.879658e-01
9.629817e-01
9.062277e-01
8.112408e-01
7.119617e-01
5.210740e-01
4.143902e-01
2.385986e-01
1.469496e-01
7.675962e-02
3.696955e-02
1.603447e-02
5.937950e-03
1.821567e-03
4.408398e-04
9.321576e-05
6.160999e-05
4.637086e-05
3.073386e-05
1.463686e-05
5.780383e-06
2.531904e-06
7.728484e-07
1.159642e-07
7.470370e-08
2.893211e-08
1.711005e-08
1.365870e-08
8.317980e-09
3.936168e-09
1.574067e-09
2.126861e-10
4.252567e-11
2.969044e-11
2.510758e-11
1.528955e-11
7.131729e-12
3.309964e-12
1.541775e-12
7.285956e-13
3.367540e-13
1.537116e-13
7.517268e-14
2.474709e-14
2.288148e-15
2.404466e-16
2.747278e-16
1.560768e-16
7.472806e-17
1.652486e-17
1.432627e-17
1.175425e-17
6.847402e-18
1.194059e-18
3.937746e-19
1.475127e-19
3.763978e-20
1.568219e-20
6.024163e-21
1.608348e-21
1.045050e-22
-8.717836e-24
-2.406323e-23
-1.873726e-23
-6.399502e-24
1.000000e+00
1.000000e+00
1.000000e+00
1.000000e+00
1.000000e+00
1.000000e+00
1.000000e+00
1.000000e+00
1.000000e+00
9.999994e-01
9.999995e-01
9.999938e-01
9.999928e-01
9.999844e-01
9.993614e-01
9.962169e-01
9.859963e-01
9.586153e-01
8.993035e-01
8.088102e-01
7.066999e-01
5.196759e-01
4.154703e-01
2.429741e-01
1.591342e-01
8.341518e-02
4.028571e-02
1.766676e-02
6.905853e-03
2.337376e-03
6.613201e-04
1.622241e-04
5.813422e-05
3.676421e-05
2.336425e-05
1.099303e-05
4.271171e-06
2.580740e-06
1.470556e-06
7.238492e-07
3.017387e-07
6.894467e-08
1.024558e-08
7.890625e-09
3.933329e-09
3.051899e-09
2.158313e-09
7.066923e-10
8.278386e-11
2.659571e-11
1.310918e-11
3.911581e-12
2.566962e-12
1.327604e-12
7.248814e-13
2.363894e-13
1.025838e-13
7.384975e-14
5.961275e-14
3.694469e-14
1.719519e-14
7.842061e-15
3.605556e-15
1.714786e-15
5.772899e-16
6.563298e-17
7.843172e-18
8.637426e-18
8.335626e-18
5.997515e-18
3.197682e-18
1.563320e-18
5.836835e-19
1.318594e-19
3.369862e-21
-6.590500e-22
-9.338641e-22
-5.748604e-22
-2.773549e-22
-1.122742e-22
1.000000e+00
1.000000e+00
1.000000e+00
1.000000e+00
1.000000e+00
1.000000e+00
1.000000e+00
1.000000e+00
1.000000e+00
9.999998e-01
9.999998e-01
9.999981e-01
9.999943e-01
9.999941e-01
9.999337e-01
9.991156e-01
9.953327e-01
9.837919e-01
9.547007e-01
8.884994e-01
8.115193e-01
7.049261e-01
5.184977e-01
4.165354e-01
2.444886e-01
1.649272e-01
8.851991e-02
4.342495e-02
1.933447e-02
7.745085e-03
2.733384e-03
8.229064e-04
2.223331e-04
7.465187e-05
4.244862e-05
2.842626e-05
1.359720e-05
3.776964e-06
1.372457e-06
7.281478e-07
5.704911e-07
3.656312e-07
1.877530e-07
7.453661e-08
1.259845e-08
2.234048e-09
1.938787e-09
1.686329e-09
1.031348e-09
4.864850e-10
2.197617e-10
1.037074e-10
4.815555e-11
2.236692e-11
1.041612e-11
5.246639e-12
1.813811e-12
2.147848e-13
3.757971e-14
2.019567e-14
1.537959e-14
8.048550e-15
3.453990e-15
1.696468e-15
1.378520e-15
7.964779e-16
2.307014e-16
5.946046e-18
5.501441e-18
4.823564e-18
1.897526e-18
1.516169e-18
1.223734e-18
7.226773e-19
3.293069e-19
1.190583e-19
4.063903e-20
1.363526e-20
4.707998e-21
1.539289e-21
1.000000e+00
1.000000e+00
1.000000e+00
1.000000e+00
1.000000e+00
1.000000e+00
1.000000e+00
1.000000e+00
1.000000e+00
9.999999e-01
9.999998e-01
9.999998e-01
9.999968e-01
9.999955e-01
9.999982e-01
9.998350e-01
9.989889e-01
9.937595e-01
9.846095e-01
9.402833e-01
8.937333e-01
7.989457e-01
7.032397e-01
5.214430e-01
4.170949e-01
2.478254e-01
1.704911e-01
9.366837e-02
4.707112e-02
2.143622e-02
8.822237e-03
3.222595e-03
1.013667e-03
2.711340e-04
7.394654e-05
3.904863e-05
3.006113e-05
1.991118e-05
9.551069e-06
3.174618e-06
5.833895e-07
3.194231e-07
1.867681e-07
1.452855e-07
1.024600e-07
4.020899e-08
8.009635e-09
1.723315e-09
8.617589e-10
3.389035e-10
1.241270e-10
9.275452e-11
3.713907e-11
1.897477e-11
1.044619e-11
5.335073e-12
4.285483e-12
2.568334e-12
1.195016e-12
5.536414e-13
2.604056e-13
1.278614e-13
4.100638e-14
6.411707e-15
1.216700e-15
1.095799e-15
8.059076e-16
4.246220e-16
2.030288e-16
1.003700e-16
3.615667e-17
4.083705e-18
6.606341e-19
6.823669e-19
2.513056e-19
8.522442e-20
2.684888e-20
1.258072e-20
-4.329879e-22
5.797888e-22
1.000000e+00
1.000000e+00
1.000000e+00
1.000000e+00
1.000000e+00
1.000000e+00
1.000000e+00
1.000000e+00
1.000000e+00
1.000000e+00
9.999999e-01
9.999999e-01
9.999991e-01
9.999967e-01
9.999971e-01
9.999272e-01
9.999159e-01
9.968886e-01
9.968171e-01
9.755184e-01
9.436035e-01
8.871398e-01
7.906484e-01
7.009969e-01
5.218825e-01
4.173702e-01
2.502995e-01
1.743786e-01
9.762815e-02
5.031234e-02
2.347842e-02
9.952182e-03
3.808827e-03
1.287877e-03
3.695344e-04
8.362550e-05
3.108021e-05
2.014462e-05
1.489231e-05
1.010947e-05
5.297638e-06
1.954558e-06
5.329971e-07
1.550221e-07
1.004817e-07
7.772376e-08
4.998283e-08
2.544085e-08
1.193146e-08
5.588304e-09
2.632534e-09
1.215480e-09
5.723281e-10
2.773185e-10
1.004660e-10
1.542790e-11
3.845705e-12
2.361464e-12
1.212923e-12
3.947750e-13
1.867991e-13
1.203544e-13
1.001867e-13
5.594649e-14
1.556757e-14
1.386349e-15
7.215397e-16
2.031680e-16
1.734693e-16
1.009012e-16
8.451227e-17
5.537975e-17
2.660909e-17
1.244914e-17
5.866220e-18
2.581225e-18
1.042924e-18
4.088102e-19
1.635167e-19
6.172570e-20
1.000000e+00
1.000000e+00
1.000000e+00
1.000000e+00
1.000000e+00
1.000000e+00
1.000000e+00
1.000000e+00
1.000000e+00
1.000000e+00
1.000000e+00
9.999999e-01
9.999999e-01
9.999983e-01
9.999985e-01
9.999669e-01
9.999818e-01
9.986518e-01
9.987109e-01
9.924806e-01
9.749132e-01
9.411979e-01
8.822835e-01
7.836147e-01
6.993945e-01
5.244075e-01
4.205861e-01
2.545856e-01
1.790155e-01
1.014367e-01
5.354702e-02
2.548201e-02
1.099863e-02
4.332885e-03
1.563771e-03
5.123146e-04
1.486007e-04
4.515326e-05
1.903310e-05
1.196786e-05
8.079888e-06
4.411516e-06
2.415593e-06
1.182655e-06
4.018508e-07
8.518623e-08
4.710833e-08
2.305262e-08
1.057389e-08
4.897667e-09
2.542801e-09
1.158661e-09
4.951706e-10
2.709854e-10
2.230068e-10
1.361380e-10
6.464396e-11
3.152113e-11
1.481532e-11
7.205653e-12
2.482722e-12
4.387767e-13
1.068169e-13
8.328897e-14
5.992055e-14
3.253630e-14
1.471701e-14
7.107190e-15
2.408860e-15
2.598668e-16
7.262023e-17
4.230376e-17
2.159513e-17
1.246536e-17
4.638012e-18
2.245444e-18
1.063648e-18
1.893386e-19
1.204576e-19
5.553860e-20
1.000000e+00
1.000000e+00
1.000000e+00
1.000000e+00
1.000000e+00
1.000000e+00
1.000000e+00
1.000000e+00
1.000000e+00
1.000000e+00
1.000000e+00
1.000000e+00
1.000000e+00
9.999992e-01
9.999998e-01
9.999845e-01
9.999904e-01
9.993880e-01
9.993738e-01
9.979647e-01
9.905256e-01
9.730532e-01
9.372509e-01
8.796814e-01
7.714906e-01
6.917876e-01
5.232527e-01
4.221742e-01
2.585637e-01
1.840060e-01
1.048438e-01
5.701395e-02
2.783445e-02
1.220328e-02
4.828996e-03
1.741129e-03
5.761780e-04
1.821859e-04
6.017525e-05
2.351311e-05
1.253640e-05
7.872700e-06
3.738652e-06
1.710640e-06
1.153658e-06
6.866180e-07
3.390372e-07
1.716806e-07
8.758445e-08
4.359902e-08
2.139469e-08
1.061867e-08
4.357898e-09
9.409784e-10
1.900560e-10
1.355261e-10
5.305516e-11
2.703137e-11
1.480670e-11
7.222727e-12
5.901272e-12
3.252636e-12
9.581542e-13
8.430162e-14
5.966053e-14
2.246924e-14
1.329961e-14
7.081658e-15
5.830815e-15
3.641742e-15
1.717919e-15
8.099703e-16
3.778101e-16
1.785847e-16
8.134916e-17
3.697297e-17
1.661660e-17
7.587593e-18
2.368884e-18
4.352683e-19
1.000000e+00
1.000000e+00
1.000000e+00
1.000000e+00
1.000000e+00
1.000000e+00
1.000000e+00
1.000000e+00
1.000000e+00
1.000000e+00
1.000000e+00
1.000000e+00
1.000000e+00
9.999996e-01
9.999997e-01
9.999930e-01
9.999943e-01
9.997696e-01
9.995468e-01
9.994596e-01
9.969800e-01
9.892517e-01
9.704424e-01
9.337854e-01
8.782768e-01
7.661888e-01
6.869118e-01
5.219685e-01
4.232779e-01
2.619543e-01
1.899424e-01
1.067759e-01
5.992143e-02
3.035814e-02
1.379431e-02
5.613518e-03
2.049050e-03
6.792865e-04
2.139605e-04
7.103352e-05
2.667573e-05
1.331899e-05
9.641229e-06
4.423514e-06
1.400876e-06
6.928787e-07
3.156510e-07
1.753414e-07
7.932556e-08
3.741600e-08
1.926570e-08
1.046662e-08
8.638367e-09
5.521265e-09
2.792725e-09
1.309174e-09
6.381638e-10
3.289206e-10
1.130515e-10
2.433791e-11
6.327785e-12
5.007350e-12
3.501613e-12
1.923506e-12
8.758649e-13
4.362494e-13
1.508846e-13
1.983722e-14
6.155520e-15
3.661123e-15
9.686489e-16
6.221587e-16
3.418219e-16
1.719053e-16
8.428308e-17
2.037559e-17
1.620931e-17
7.584943e-18
5.927032e-18
2.883259e-18
1.000000e+00
1.000000e+00
1.000000e+00
1.000000e+00
1.000000e+00
1.000000e+00
1.000000e+00
1.000000e+00