# vtk DataFile Version 3.0
MUSCL
ASCII
DATASET STRUCTURED_POINTS
DIMENSIONS 80 80 1
ORIGIN 0 0 0
SPACING 0.0125 0.0125 1
POINT_DATA 6400
SCALARS Temperature double 1
LOOKUP_TABLE default
0.000000e+00
-6.740015e-01
-1.939394e-01
-2.456185e-02
-3.517446e-04
1.998769e-05
8.868989e-07
-6.457391e-07
-2.483871e-07
-7.919903e-08
-3.493069e-08
-1.641253e-08
-7.431872e-09
-3.280661e-09
-1.377421e-09
-1.574582e-10
1.749648e-11
2.923114e-12
9.087940e-13
4.541302e-15
-9.098775e-15
-4.195959e-15
-1.731762e-15
-4.166864e-16
2.803937e-17
6.309759e-16
8.602648e-16
6.440251e-16
3.432498e-16
1.152132e-16
4.002406e-19
-8.695475e-19
-6.020226e-19
-2.487033e-19
-2.774455e-20
9.835084e-22
6.606547e-22
2.358780e-22
1.024420e-22
9.868098e-23
1.697649e-22
1.281887e-22
-1.583262e-25
-3.107274e-25
-4.815303e-25
-3.925599e-25
-2.419112e-25
-1.355550e-25
-6.691224e-26
-2.998297e-26
-1.245224e-26
-4.617004e-27
-5.857152e-28
2.226701e-29
5.974519e-30
2.628322e-30
1.162759e-30
4.437299e-31
1.626299e-31
6.331025e-32
2.738104e-32
1.318158e-32
6.802517e-33
3.526057e-33
1.729819e-33
7.752625e-34
3.129074e-34
1.135084e-34
3.715340e-35
1.104573e-35
3.007210e-36
7.571378e-37
1.786555e-37
4.137653e-38
1.118684e-38
4.300537e-39
2.041395e-39
9.195363e-40
3.593485e-40
1.020869e-40
1.325999e+00
6.740015e-01
1.939394e-01
2.456185e-02
3.517446e-04
-1.998769e-05
-8.868989e-07
6.457391e-07
2.483871e-07
7.919903e-08
3.493069e-08
1.641253e-08
7.431872e-09
3.280661e-09
1.377421e-09
1.574582e-10
-1.749648e-11
-2.923114e-12
-9.087940e-13
-4.541302e-15
9.098775e-15
4.195959e-15
1.731762e-15
4.166864e-16
-2.803937e-17
-6.309759e-16
-8.602648e-16
-6.440251e-16
-3.432498e-16
-1.152132e-16
-4.002406e-19
8.695475e-19
6.020226e-19
2.487033e-19
2.774455e-20
-9.835084e-22
-6.606547e-22
-2.358780e-22
-1.024420e-22
-9.868098e-23
-1.697649e-22
-1.281887e-22
1.583262e-25
3.107274e-25
4.815303e-25
3.925599e-25
2.419112e-25
1.355550e-25
6.691224e-26
2.998297e-26
1.245224e-26
4.617004e-27
5.857152e-28
-2.226701e-29
-5.974519e-30
-2.628322e-30
-1.162759e-30
-4.437299e-31
-1.626299e-31
-6.331025e-32
-2.738104e-32
-1.318158e-32
-6.802517e-33
-3.526057e-33
-1.729819e-33
-7.752625e-34
-3.129074e-34
-1.135084e-34
-3.715340e-35
-1.104573e-35
-3.007210e-36
-7.571378e-37
-1.786555e-37
-4.137653e-38
-1.118684e-38
-4.300537e-39
-2.041395e-39
-9.195363e-40
-3.593485e-40
-1.020869e-40
1.041935e+00
9.580648e-01
5.984941e-01
2.397992e-01
5.881058e-02
3.815653e-03
-1.283273e-04
-5.681005e-05
-2.672473e-05
-1.054426e-05
-4.172319e-06
-1.729660e-06
-7.095272e-07
-1.868884e-07
-5.321244e-09
1.889460e-09
1.126393e-09
3.053777e-10
1.820089e-11
-1.258192e-12
-9.410058e-13
-3.475331e-13
-9.779901e-14
7.779314e-16
4.544600e-16
3.530728e-16
-5.868907e-16
-2.958283e-16
-3.482487e-16
-3.248194e-16
-2.055312e-16
-9.824715e-17
-2.952134e-17
-5.587624e-19
2.313375e-19
1.699482e-19
5.802770e-20
2.084873e-20
8.698107e-21
8.323810e-22
-2.451203e-22
-3.384936e-22
-3.283536e-22
-2.102944e-22
-1.216193e-22
-6.691791e-23
-3.544284e-23
-1.781357e-23
-8.467863e-24
-3.145263e-24
-7.550918e-25
1.571258e-26
5.596244e-27
2.967001e-27
1.092737e-27
4.025703e-28
1.466093e-28
4.922852e-29
1.569876e-29
5.451999e-30
2.351228e-30
1.206108e-30
6.405995e-31
3.216599e-31
1.472001e-31
6.075407e-32
2.262397e-32
7.639140e-33
2.355184e-33
6.683482e-34
1.762806e-34
4.385051e-35
1.106093e-35
2.032418e-36
4.358805e-37
1.615874e-37
5.403607e-38
1.770085e-38
5.612876e-39
1.417205e-39
9.998920e-01
1.000108e+00
8.872358e-01
5.936085e-01
2.706383e-01
8.391666e-02
1.613965e-02
1.242254e-03
4.704844e-04
2.052519e-04
7.595118e-05
9.829878e-06
-6.383843e-07
-6.464607e-07
-3.808659e-07
-1.359802e-07
-8.445151e-09
5.062584e-10
3.476921e-10
1.623744e-10
3.859841e-11
-3.925335e-13
-1.225726e-13
-1.767478e-13
-1.479272e-13
-7.884627e-14
-1.310123e-14
-5.637849e-16
1.100809e-16
7.831211e-16
3.406374e-16
-1.116763e-16
-8.866270e-17
-5.140503e-17
-2.234127e-17
-9.702269e-18
-3.685104e-18
-8.323699e-19
1.376143e-20
1.162440e-20
6.661036e-21
1.867998e-21
1.326610e-22
1.603005e-22
-3.116270e-23
1.247790e-23
6.978133e-24
-7.569811e-24
-8.186417e-24
-6.632571e-24
-3.901332e-24
-1.959126e-24
-7.683475e-25
-2.861700e-25
-1.029836e-25
-3.568361e-26
-1.186958e-26
-3.831878e-27
-1.249570e-27
-4.461301e-28
-1.797494e-28
-8.204819e-29
-3.957715e-29
-1.791388e-29
-7.457579e-30
-2.826121e-30
-9.743183e-31
-3.197837e-31
-9.875308e-32
-2.672699e-32
-5.235554e-33
1.701483e-35
1.453615e-35
7.595232e-36
2.433793e-36
8.153041e-40
-2.487769e-37
-1.319380e-37
-4.819954e-38
-2.564299e-38
9.999119e-01
1.000088e+00
9.864303e-01
8.524521e-01
5.808453e-01
2.962052e-01
9.884209e-02
2.182532e-02
6.049798e-04
1.598159e-04
1.400543e-04
9.444551e-05
4.242350e-05
8.021885e-06
-2.457850e-07
-2.703396e-07
-1.762003e-07
-4.353861e-08
2.216365e-10
2.383821e-10
1.862025e-10
9.721696e-11
4.582863e-11
2.368011e-11
9.380338e-12
-3.319581e-14
-1.069670e-13
-6.422543e-14
-1.189771e-14
7.592411e-16
1.490955e-15
1.443775e-15
7.544888e-16
3.843406e-16
1.712680e-16
2.311319e-18
-5.276041e-18
-4.149543e-18
-2.104481e-18
-8.679244e-19
-3.509713e-19
-1.408644e-19
-5.656998e-20
-2.281006e-20
-9.411087e-21
-4.019185e-21
-1.826444e-21
-7.541717e-22
-1.182271e-22
-7.658983e-24
-2.917826e-24
-3.432300e-25
6.954273e-25
-8.695599e-26
-7.577517e-26
-2.437761e-26
-7.522260e-27
-2.671062e-27
-9.976653e-28
-5.343269e-28
-2.493448e-28
-1.177481e-28
8.715540e-30
8.985874e-30
-1.916528e-30
-1.057944e-30
-7.444415e-31
-3.494333e-31
-1.499350e-31
-6.077087e-32
-2.346627e-32
-8.807487e-33
-2.280979e-33
-3.612897e-34
-3.718953e-36
2.546619e-36
-9.323161e-38
-1.305074e-37
1.387306e-37
3.915771e-37
9.999698e-01
1.000030e+00
1.000104e+00
9.655623e-01
8.295047e-01
5.645978e-01
3.365331e-01
1.266585e-01
3.473321e-02
2.602608e-03
7.005671e-05
7.279345e-05
6.766874e-05
4.550935e-05
1.975597e-05
2.870970e-06
-1.350015e-07
-1.611700e-07
-9.626571e-08
-4.359778e-08
-2.021116e-08
-9.608908e-09
-3.156878e-09
-2.326665e-11
4.090880e-11
1.472650e-11
6.221719e-12
-2.207253e-14
-1.203009e-13
-3.330899e-14
-1.046340e-14
-3.834847e-15
-1.133207e-15
-5.644327e-17
1.494575e-16
1.745872e-16
1.242498e-16
5.681853e-17
2.488584e-17
1.042484e-17
4.205247e-18
1.625740e-18
5.934441e-19
1.991053e-19
5.825539e-20
1.315133e-20
1.291741e-21
-7.769989e-22
-8.707946e-22
-4.624271e-22
-2.007849e-22
-9.290934e-23
-3.981178e-23
-1.661728e-23
-6.913446e-24
-2.870504e-24
-1.033055e-24
-2.632539e-25
-2.031498e-26
1.374394e-27
9.170513e-28
4.556333e-28
2.122394e-28
-6.967926e-28
-4.199462e-28
-4.806451e-29
2.929409e-30
5.461146e-31
2.535797e-31
1.236329e-31
4.777286e-32
-6.146090e-33
-3.847443e-33
-1.617175e-33
-5.451266e-34
-1.412738e-34
-4.658914e-35
-2.175794e-35
-1.422768e-35
-1.135144e-35
9.999921e-01
1.000008e+00
1.000022e+00
9.983814e-01
9.484027e-01
8.110840e-01
5.426913e-01
3.576584e-01
1.478902e-01
5.006427e-02
9.592000e-03
1.514609e-04
3.707285e-05
4.231531e-05
3.846324e-05
2.428851e-05
1.199811e-05
5.115620e-06
2.175466e-06
8.640199e-07
1.691983e-07
-9.897180e-09
-7.723107e-09
-5.327728e-09
-1.482113e-09
8.626162e-13
1.546025e-11
1.290632e-11
5.482020e-12
2.253305e-12
9.718047e-13
4.338143e-13
1.365548e-13
1.674282e-14
3.081660e-16
-5.971287e-17
-2.149045e-17
1.841658e-17
2.127549e-17
7.330286e-18
-1.711445e-18
-1.452336e-18
-2.337532e-19
-6.700399e-20
-9.202589e-20
-6.374336e-20
-4.088461e-21
4.206008e-22
-7.609761e-22
-2.389533e-22
-9.075082e-23
-3.417414e-23
-2.897537e-23
-1.282354e-23
-4.574432e-24
-2.801802e-24
-1.953231e-24
-1.162428e-24
-6.145611e-25
-2.684655e-25
-1.120166e-25
-4.560721e-26
-1.738309e-26
-6.433980e-27
-2.433384e-27
-1.083753e-27
-4.274425e-28
-1.505971e-28
-3.167837e-29
-1.488642e-31
5.671009e-31
8.755076e-32
4.406594e-32
2.161495e-32
1.038182e-32
4.945206e-33
2.415750e-33
7.553855e-34
6.484320e-35
-1.345871e-35
9.999985e-01
1.000002e+00
1.000001e+00
1.000206e+00
9.919872e-01
9.348540e-01
7.949742e-01
5.168459e-01
3.729471e-01
1.555188e-01
5.838366e-02
1.604574e-02
2.103308e-03
7.593646e-05
3.419047e-05
2.465751e-05
1.182065e-05
5.056288e-06
2.072587e-06
1.238315e-06
8.898985e-07
3.666936e-07
5.201080e-08
-7.207879e-09
-4.660892e-09
-2.858541e-09
-1.277432e-09
-5.665723e-10
-2.482406e-10
-1.118327e-10
-3.419141e-11
-1.781959e-14
3.196272e-13
2.447631e-13
1.001947e-13
3.912048e-14
1.685838e-14
7.407051e-15
3.186381e-15
1.334869e-15
5.496872e-16
2.249363e-16
9.597564e-17
2.869700e-17
2.736164e-18
-1.436999e-20
-8.575652e-20
-5.817074e-20
-2.844463e-20
-1.354027e-20
-6.278980e-21
-2.861842e-21
-1.295194e-21
-5.921721e-22
-1.685536e-22
-5.536658e-24
-3.574843e-25
-2.641112e-25
-4.064597e-25
-7.848632e-26
-1.574907e-26
-3.799315e-26
-1.777702e-26
-5.444494e-27
-2.081619e-27
-1.080226e-27
-3.961715e-28
-2.565477e-28
-1.502627e-28
-6.888944e-29
-2.391998e-29
-8.199092e-30
-3.134139e-30
-1.336536e-30
-6.054560e-31
-1.876943e-31
-8.539661e-33
3.786060e-33
1.528634e-33
6.320051e-34
9.999998e-01
1.000000e+00
9.999996e-01
1.000031e+00
9.998932e-01
9.849400e-01
9.218340e-01
7.795419e-01
5.212732e-01
3.784107e-01
1.650104e-01
6.664860e-02
2.052395e-02
4.220280e-03
3.565181e-04
7.784023e-05
4.749174e-05
2.632243e-05
9.977429e-06
2.260304e-06
8.505939e-07
7.099904e-07
4.468164e-07
2.144063e-07
8.700368e-08
3.529527e-08
1.416155e-08
5.846295e-09
1.589943e-09
-7.033214e-11
-7.954037e-11
-5.330722e-11
-2.269348e-11
-9.567125e-12
-3.977931e-12
-1.645626e-12
-6.838126e-13
-2.875993e-13
-1.222210e-13
-5.390219e-14
-1.425966e-14
1.744171e-16
1.035678e-16
6.254590e-17
2.726066e-17
5.772153e-18
8.162819e-19
8.365664e-19
4.515242e-19
1.859953e-19
7.339713e-20
2.261545e-20
1.183188e-21
-7.481136e-22
-5.320984e-22
-3.046089e-22
-1.321390e-22
-5.681776e-23
-2.391175e-23
-1.000290e-23
-3.513767e-24
-7.579170e-25
-2.114197e-25
-1.216088e-25
-5.715989e-26
-2.501216e-26
-5.754498e-27
-1.324169e-28
-6.559114e-29
-3.592794e-29
-2.171466e-29
-7.370572e-31
-1.176583e-30
-1.290769e-30
-5.978452e-31
-5.174568e-31
-3.378531e-31
-1.677359e-31
-7.763418e-32
-2.991825e-32
1.000000e+00
1.000000e+00
9.999998e-01
1.000011e+00
1.000024e+00
9.988803e-01
9.786667e-01
9.080125e-01
7.698366e-01
5.221347e-01
3.810585e-01
1.771037e-01
7.575152e-02
2.537610e-02
5.869408e-03
4.249457e-04
4.931195e-05
3.289319e-05
2.638643e-05
1.435302e-05
4.156969e-06
7.336604e-07
4.384117e-07
2.171770e-07
8.595618e-08
3.190395e-08
1.314295e-08
5.619503e-09
4.309090e-09
2.326380e-09
9.368334e-10
3.948652e-10
1.731952e-10
7.642402e-11
3.321853e-11
1.410274e-11
6.197031e-12
1.768916e-12
-3.541610e-14
-6.179851e-14
-4.871884e-14
-2.496007e-14
-4.356774e-15
1.516112e-16
6.864748e-17
3.462578e-17
1.197076e-17
8.289315e-19
2.103731e-19
1.350193e-19
5.250495e-20
5.130229e-20
2.913373e-20
1.275737e-20
5.148314e-21
1.943779e-21
6.324964e-22
2.544234e-22
9.443599e-23
2.106568e-23
3.998338e-25
-1.713570e-24
-7.747268e-25
-9.025869e-26
-5.561771e-26
-3.589308e-26
-2.396877e-26
-1.222172e-26
-5.230781e-27
-2.147539e-27
-8.594549e-28
-3.555805e-28
-1.592626e-28
-5.869535e-29
-5.335093e-30
-3.018037e-31
-1.142927e-31
-1.543420e-31
-2.328988e-32
7.942695e-33
1.000000e+00
1.000000e+00
1.000000e+00
1.000001e+00
1.000014e+00
1.000016e+00
9.972411e-01
9.710135e-01
8.969509e-01
7.615673e-01
5.236649e-01
3.740368e-01
1.875537e-01
8.584285e-02
3.197658e-02
8.886661e-03
1.245283e-03
2.321079e-05
2.613335e-05
2.280619e-05
1.651880e-05
7.306572e-06
2.045390e-06
7.445707e-07
4.241452e-07
2.267646e-07
9.794758e-08
2.610791e-08
3.754597e-09
1.667196e-09
6.797435e-10
3.651970e-10
1.051223e-10
5.643657e-11
3.224341e-11
6.421491e-12
6.112254e-12
4.869344e-12
2.601618e-12
5.802149e-13
-3.306816e-14
-3.839121e-14
-2.867091e-14
-1.191937e-14
-1.837989e-15
6.628435e-17
4.067490e-17
2.280383e-17
1.056453e-17
4.676048e-18
7.030345e-19
6.343343e-20
2.344988e-20
5.697045e-21
3.119780e-21
2.755144e-21
1.788644e-21
6.533018e-22
9.702045e-23
1.301827e-23
-1.288592e-24
-2.862992e-24
-3.079714e-24
-2.233842e-24
-5.876689e-25
-4.040196e-26
-1.651616e-26
-8.138612e-27
-4.303922e-27
-4.299245e-28
-4.304419e-28
-1.397423e-28
-1.212455e-28
-9.600122e-29
-7.062658e-29
-3.422050e-29
-1.685965e-29
-7.994615e-30
-3.790230e-30
-1.506329e-30
1.000000e+00
1.000000e+00
1.000000e+00
1.000000e+00
1.000007e+00
1.000008e+00
9.999915e-01
9.941723e-01
9.638548e-01
8.861238e-01
7.588834e-01
5.118833e-01
3.893745e-01
1.921948e-01
9.244106e-02
3.721976e-02
1.168668e-02
2.293175e-03
5.768847e-05
1.593313e-05
1.699270e-05
1.416407e-05
7.619502e-06
2.128827e-06
4.131778e-07
2.263338e-07
1.781385e-07
1.147086e-07
5.918051e-08
2.765781e-08
1.268355e-08
5.979161e-09
2.894137e-09
1.372787e-09
6.801834e-10
2.331982e-10
2.823804e-11
4.559805e-12
3.578421e-12
2.743412e-12
1.339324e-12
2.712679e-13
-3.285340e-14
-2.324305e-14
-1.489038e-14
-7.213832e-15
-3.178375e-15
-8.537397e-16
-1.062061e-17
4.738017e-18
4.407909e-18
2.399039e-18
1.125397e-18
4.587677e-19
7.522861e-20
-6.745644e-22
8.200169e-22
1.372362e-21
1.076766e-21
4.517083e-22
1.517771e-22
3.787606e-23
4.159293e-24
-1.565402e-24
-2.232522e-24
-1.356774e-24
-5.941569e-25
-2.670684e-25
-1.195143e-25
-5.445209e-26
-2.378555e-26
-1.093902e-26
-3.131287e-27
-1.282657e-28
8.146410e-30
6.756825e-30
1.763004e-31
-2.701864e-30
-2.991479e-30
-7.748832e-31
1.000000e+00
1.000000e+00
1.000000e+00
1.000000e+00
1.000002e+00
1.000005e+00
1.000009e+00
9.997473e-01
9.914285e-01
9.548113e-01
8.817398e-01
7.454054e-01
5.159573e-01
3.938888e-01
1.987327e-01
9.896498e-02
4.201731e-02
1.454011e-02
3.623612e-03
3.401182e-04
2.131981e-05
1.659074e-05
1.345250e-05
9.852352e-06
4.129017e-06
8.517175e-07
1.417287e-07
1.034755e-07
5.730634e-08
2.481774e-08
9.986209e-09
4.251227e-09
2.735455e-09
1.369404e-09
6.975687e-10
5.649796e-10
3.218788e-10
8.331614e-11
5.188431e-12
2.787091e-12
2.000918e-12
1.411116e-12
7.226684e-13
3.212520e-13
1.060692e-13
5.580832e-15
-3.813671e-15
-2.852539e-15
-1.583655e-15
-6.860398e-16
-3.025449e-16
-8.361397e-17
1.428849e-18
7.224879e-19
5.828050e-19
2.048892e-19
1.855791e-20
-3.150296e-21
3.773311e-22
1.934690e-22
-5.374075e-23
-5.082185e-23
-1.792112e-23
-1.755247e-24
-2.053083e-24
-1.386426e-24
-4.633626e-25
-2.497467e-25
-1.127042e-25
-4.992283e-26
-2.192765e-26
-1.296823e-26
-8.901207e-27
-5.076650e-27
-2.405310e-27
-1.155491e-27
-5.606435e-28
-2.316167e-28
-1.054972e-28
-4.283216e-29
1.000000e+00
1.000000e+00
1.000000e+00
1.000000e+00
1.000000e+00
1.000002e+00
1.000008e+00
9.999053e-01
9.998398e-01
9.863073e-01
9.508066e-01
8.715180e-01
7.384498e-01
5.162067e-01
3.972780e-01
2.052667e-01
1.052543e-01
4.641486e-02
1.745555e-02
5.011862e-03
5.931076e-04
1.670221e-05
8.337311e-06
9.519277e-06
8.273023e-06
5.378061e-06
2.671398e-06
1.233958e-06
5.724844e-07
2.664184e-07
1.264430e-07
6.003212e-08
3.031051e-08
1.052554e-08
1.865354e-09
5.260386e-10
4.468323e-10
3.333901e-10
1.574731e-10
3.400631e-11
2.491515e-12
1.142931e-12
7.230517e-13
3.185131e-13
2.348750e-13
1.403475e-13
6.386607e-14
2.607749e-14
8.274327e-15
3.729461e-16
-3.568765e-16
-2.664371e-16
-1.535788e-16
-4.617467e-17
2.700326e-19
4.845109e-19
3.722954e-19
1.579914e-19
6.605047e-20
1.890630e-20
6.612314e-22
-3.093577e-22
-1.645461e-22
-7.778877e-23
-3.566620e-23
-1.614715e-23
-6.073907e-24
-2.097419e-24
-5.904805e-25
-8.522223e-26
-2.408275e-26
-9.972960e-27
-5.526563e-27
-2.060645e-27
-1.009890e-27
-6.768538e-28
-5.029203e-28
-3.760297e-28
-1.446671e-28
-4.332019e-29
1.000000e+00
1.000000e+00
1.000000e+00
1.000000e+00
1.000000e+00
1.000000e+00
1.000004e+00
9.999597e-01
1.000038e+00
9.976338e-01
9.838078e-01
9.446694e-01
8.634700e-01
7.326555e-01
5.158155e-01
4.002652e-01
2.116410e-01
1.117482e-01
5.057009e-02
2.040344e-02
7.024101e-03
1.806838e-03
2.266125e-04
7.987097e-06
7.106441e-06
-4.417596e-07
1.877033e-06
1.164322e-06
1.909299e-07
1.861443e-07
1.225634e-07
5.084137e-08
3.052842e-08
2.465876e-08
1.504956e-08
4.879808e-09
4.535414e-10
3.214744e-10
2.572007e-10
1.725649e-10
8.733096e-11
4.010180e-11
1.509721e-11
1.921559e-12
4.335366e-14
1.146107e-13
3.940038e-14
2.397611e-14
1.812651e-14
1.074967e-14
4.441529e-15
7.089616e-16
-1.363250e-16
-1.288991e-16
-7.489602e-17
-3.329821e-17
-9.790041e-18
1.162700e-19
9.399628e-20
6.123947e-20
3.443934e-20
1.451184e-20
6.072328e-21
2.573121e-21
1.105175e-21
4.887661e-22
1.612484e-22
2.086245e-23
-1.766040e-24
-7.432174e-25
-3.131583e-25
-1.161572e-25
-3.620013e-26
-8.735546e-27
-1.323607e-27
-7.088269e-28
-7.222610e-28
-5.318850e-28
-4.469739e-28
-2.499132e-28
1.000000e+00
1.000000e+00
1.000000e+00
1.000000e+00
1.000000e+00
1.000000e+00
1.000002e+00
9.999838e-01
9.999911e-01
9.999134e-01
9.962583e-01
9.802421e-01
9.386730e-01
8.559097e-01
7.276794e-01
5.150292e-01
4.023144e-01
2.167495e-01
1.189907e-01
5.370282e-02
2.138666e-02
7.364352e-03
2.234902e-03
7.046356e-04
3.102995e-04
1.409576e-04
6.279751e-05
2.825465e-05
1.271378e-05
5.674382e-06
2.622228e-06
8.451528e-07
1.086041e-07
2.337941e-08
1.927789e-08
1.523433e-08
8.257490e-09
2.094406e-09
2.620348e-10
1.756963e-10
7.641119e-11
3.956424e-11
3.165443e-11
2.000702e-11
9.451071e-12
4.345937e-12
1.595293e-12
2.225280e-13
9.442209e-15
9.037530e-15
7.196231e-15
4.578599e-15
2.260586e-15
8.233737e-16
1.238223e-16
-3.532203e-17
-2.758260e-17
-1.567349e-17
-6.703881e-18
-2.868394e-18
-1.226706e-18
-5.268034e-19
-2.277011e-19
-9.383473e-20
-2.516474e-20
-7.054198e-23
3.745127e-22
2.581730e-22
1.278217e-22
5.728865e-23
2.495589e-23
1.050547e-23
2.901385e-24
1.004540e-25
-1.104247e-26
-7.083983e-28
8.411782e-27
9.822028e-27
5.735270e-27
2.393142e-27
1.000000e+00
1.000000e+00
1.000000e+00
1.000000e+00
1.000000e+00
1.000000e+00
1.000001e+00
9.999934e-01
9.999921e-01
9.999970e-01
9.996810e-01
9.947769e-01
9.764013e-01
9.334684e-01
8.476251e-01
7.250238e-01
5.158554e-01
4.044656e-01
2.192188e-01
1.311522e-01
6.151326e-02
2.463621e-02
8.073382e-03
1.881057e-03
2.986897e-04
1.450665e-04
5.430452e-05
2.802481e-05
1.108828e-05
5.660596e-06
2.676083e-06
2.142315e-06
1.167605e-06
2.806309e-07
1.783760e-08
1.501024e-08
1.193401e-08
8.793507e-09
4.537637e-09
2.215333e-09
8.661103e-10
1.617551e-10
3.458565e-11
1.949216e-11
6.292058e-12
4.350232e-12
3.305943e-12
2.093497e-12
8.552455e-13
1.933927e-13
1.947529e-15
3.406292e-15
1.962831e-15
1.330795e-15
8.364830e-16
4.190198e-16
1.584430e-16
5.487684e-17
1.802829e-17
5.346974e-18
1.264808e-18
1.104202e-19
-1.233556e-19
-1.228466e-19
-8.883421e-20
-5.027088e-20
-2.207396e-20
-9.567521e-21
-4.254764e-21
-1.272790e-21
-4.312391e-23
1.397896e-23
1.002113e-23
5.205603e-24
8.590690e-25
-7.244943e-27
-1.815221e-26
3.092123e-27
5.564099e-27
2.158614e-27
1.000000e+00
1.000000e+00
1.000000e+00
1.000000e+00
1.000000e+00
1.000000e+00
1.000000e+00
9.999984e-01
9.999944e-01
9.999955e-01
9.999903e-01
9.992607e-01
9.929758e-01
9.723958e-01
9.302047e-01
8.319085e-01
7.228652e-01
5.194966e-01
4.071011e-01
2.222740e-01
1.368210e-01
6.858777e-02
3.015102e-02
1.135511e-02
3.478205e-03
9.784521e-04
4.657638e-04
2.262650e-04
1.141539e-04
3.989948e-05
7.756193e-06
2.077434e-06
1.742228e-06
1.301197e-06
5.716685e-07
1.186154e-07
7.588580e-09
3.249824e-09
3.291236e-09
2.057581e-09
1.681220e-09
1.108926e-09
5.543248e-10
2.652494e-10
1.023087e-10
1.881405e-11
2.786715e-12
1.528264e-12
1.385728e-12
9.834574e-13
4.882705e-13
1.722704e-13
2.187771e-14
-1.447357e-15
4.684745e-16
1.363960e-16
5.532530e-17
4.692223e-17
2.323623e-19
1.163784e-18
-5.756569e-19
-1.347710e-18
-5.855348e-19
-1.276159e-19
-7.060167e-20
-4.980123e-20
-1.844134e-20
-9.200244e-21
-4.320032e-21
-3.278443e-21
-2.038195e-21
-5.745269e-22
-2.535387e-24
6.099138e-24
5.427066e-24
2.566503e-24
1.188877e-24
5.575254e-25
2.373199e-25
6.168873e-26
1.000000e+00
1.000000e+00
1.000000e+00
1.000000e+00
1.000000e+00
1.000000e+00
1.000000e+00
1.000000e+00
9.999970e-01
9.999960e-01
9.999972e-01
9.999426e-01
9.989902e-01
9.902006e-01
9.711740e-01
9.210100e-01
8.231689e-01
7.195672e-01
5.218357e-01
4.078342e-01
2.281066e-01
1.366075e-01
6.950234e-02
3.124225e-02
1.175682e-02
3.400178e-03
5.742521e-04
2.299193e-04
1.175245e-04
9.641244e-05
5.534960e-05
1.562272e-05
1.837554e-06
1.264278e-06
9.883405e-07
6.560509e-07
3.250857e-07
1.563041e-07
6.046341e-08
1.071635e-08
1.761279e-09
5.683768e-10
5.097614e-10
2.516106e-10
2.129205e-10
1.351719e-10
6.699669e-11
2.176556e-11
1.655254e-12
9.103870e-13
4.978552e-13
3.664157e-13
2.242030e-13
1.025004e-13
4.423112e-14
2.038575e-14
8.836019e-15
3.787925e-15
1.630653e-15
7.198035e-16
2.195148e-16
8.114851e-18
-1.579076e-18
-1.275329e-18
-6.196703e-19
-2.945273e-19
-1.454049e-19
-6.387792e-20
-1.982377e-20
-3.272089e-21
-1.981473e-21
-1.593132e-21
-9.030823e-22
-3.923722e-22
-1.677284e-22
-7.286020e-23
-2.587798e-23
-2.903701e-24
3.685539e-25
2.222561e-25
1.000000e+00
1.000000e+00
1.000000e+00
1.000000e+00
1.000000e+00
1.000000e+00
1.000000e+00
1.000000e+00
9.999994e-01
9.999972e-01
9.999974e-01
9.999746e-01
9.999799e-01
9.975551e-01
9.896794e-01
9.671808e-01
9.134950e-01
8.160442e-01
7.166339e-01
5.215011e-01
4.107719e-01
2.332017e-01
1.463588e-01
7.662016e-02
3.645420e-02
1.524157e-02
5.269326e-03
1.344800e-03
2.988932e-04
9.767009e-05
8.021661e-05
6.037644e-05
2.916206e-05
7.447755e-06
1.039043e-06
5.283687e-07
3.019711e-07
1.604374e-07
1.195453e-07
7.654454e-08
3.740580e-08
1.738820e-08
6.509375e-09
1.117939e-09
1.002029e-10
1.333379e-10
7.862055e-11
5.599043e-11
3.454114e-11
1.267308e-11
2.047770e-12
3.300144e-13
2.270362e-13
9.722238e-14
4.576124e-14
1.378676e-14
7.291634e-15
1.162168e-15
1.454646e-15
7.417266e-16
5.620090e-16
3.199229e-16
1.391294e-16
5.950618e-17
2.627891e-17
9.438825e-18
5.919958e-19
-7.478450e-20
-6.725828e-20
-3.113869e-20
-6.288699e-21
-1.518755e-21
-9.240905e-22
-3.374398e-22
-1.253572e-22
-5.851526e-23
-5.220311e-23
-3.238479e-23
-1.525885e-23
-6.690197e-24
1.000000e+00
1.000000e+00
1.000000e+00
1.000000e+00
1.000000e+00
1.000000e+00
1.000000e+00
1.000000e+00
1.000000e+00
9.999985e-01
9.999988e-01
9.999871e-01
9.999907e-01
9.996188e-01
9.969461e-01
9.879656e-01
9.629813e-01
9.062262e-01
8.112415e-01
7.119599e-01
5.210679e-01
4.143762e-01
2.385874e-01
1.469277e-01
7.674882e-02
3.697765e-02
1.605431e-02
5.950093e-03
1.824518e-03
4.400369e-04
9.038686e-05
6.025767e-05
4.590505e-05
3.031562e-05
1.458385e-05
5.616209e-06
2.423410e-06
7.800431e-07
1.216999e-07
7.473307e-08
3.723991e-08
1.756421e-08
1.385797e-08
8.688619e-09
4.433394e-09
1.467093e-09
1.387509e-10
2.778982e-11
3.258424e-11
2.656226e-11
1.696018e-11
8.062518e-12
3.746459e-12
1.672952e-12
7.735380e-13
3.563979e-13
1.599841e-13
7.535806e-14
2.451902e-14
2.730326e-15
2.953651e-16
2.517816e-16
6.586147e-17
3.541353e-17
2.101058e-17
1.942596e-17
1.347812e-17
4.113557e-18
5.534379e-20
-8.515058e-20
-4.296419e-20
-2.018276e-20
-9.375673e-21
-4.349409e-21
-1.891084e-21
-5.053901e-22
-5.104246e-23
-2.800999e-23
-7.559118e-24
-4.122760e-24
1.000000e+00
1.000000e+00
1.000000e+00
1.000000e+00
1.000000e+00
1.000000e+00
1.000000e+00
1.000000e+00
1.000000e+00
9.999994e-01
9.999994e-01
9.999937e-01
9.999930e-01
9.999910e-01
9.993464e-01
9.962105e-01
9.859907e-01
9.586102e-01
8.993015e-01
8.088164e-01
7.067113e-01
5.196825e-01
4.154799e-01
2.429712e-01
1.591337e-01
8.341746e-02
4.029924e-02
1.768062e-02
6.911655e-03
2.339199e-03
6.610464e-04
1.580453e-04
5.681307e-05
3.528870e-05
2.216505e-05
1.004260e-05
3.915436e-06
2.482043e-06
1.412899e-06
6.927286e-07
2.869271e-07
6.821187e-08
1.418923e-08
8.376820e-09
4.502843e-09
3.610761e-09
2.272742e-09
8.722684e-10
1.452439e-10
2.601780e-11
1.562168e-11
6.537754e-12
2.838052e-12
1.688305e-12
4.316920e-13
1.718456e-13
1.351558e-13
7.435764e-14
5.973982e-14
3.590999e-14
1.620345e-14
7.161329e-15
3.266688e-15
1.250493e-15
1.720768e-16
1.494046e-17
1.279647e-17
1.077397e-17
6.385724e-18
2.884037e-18
1.244255e-18
5.559385e-19
1.921581e-19
1.521366e-20
-2.531461e-21
-2.119929e-21
-1.125924e-21
-5.218952e-22
-2.483612e-22
-1.013617e-22
1.000000e+00
1.000000e+00
1.000000e+00
1.000000e+00
1.000000e+00
1.000000e+00
1.000000e+00
1.000000e+00
1.000000e+00
9.999998e-01
9.999998e-01
9.999981e-01
9.999941e-01
9.999952e-01
9.999335e-01
9.991119e-01
9.953259e-01
9.837873e-01
9.547028e-01
8.885151e-01
8.115403e-01
7.049438e-01
5.185074e-01
4.165393e-01
2.444871e-01
1.649266e-01
8.852835e-02
4.343736e-02
1.934389e-02
7.751613e-03
2.737586e-03
8.244298e-04
2.225012e-04
7.369603e-05
4.076446e-05
2.694260e-05
1.210181e-05
2.849112e-06
1.443370e-06
7.082048e-07
5.560164e-07
3.618981e-07
1.937988e-07
6.825614e-08
1.085421e-08
2.548864e-09
2.139038e-09
1.754148e-09
1.101819e-09
5.224303e-10
2.432144e-10
1.135359e-10
5.254121e-11
2.483942e-11
1.121195e-11
5.417301e-12
1.816930e-12
2.270821e-13
2.290348e-14
2.740465e-14
7.995136e-15
5.949382e-15
3.325401e-15
2.434737e-15
1.691454e-15
5.655403e-16
5.849646e-17
8.138962e-18
5.790718e-18
2.970369e-18
2.629237e-19
4.958876e-19
4.157014e-19
2.628555e-19
1.229520e-19
5.336728e-20
2.278873e-20
9.654644e-21
4.104621e-21
1.530468e-21
1.000000e+00
1.000000e+00
1.000000e+00
1.000000e+00
1.000000e+00
1.000000e+00
1.000000e+00
1.000000e+00
1.000000e+00
9.999999e-01
9.999998e-01
9.999998e-01
9.999967e-01
9.999957e-01
9.999959e-01
9.998325e-01
9.989880e-01
9.937607e-01
9.846118e-01
9.402901e-01
8.937425e-01
7.989662e-01
7.032639e-01
5.214581e-01
4.170999e-01
2.478231e-01
1.704954e-01
9.367838e-02
4.708352e-02
2.144819e-02
8.831977e-03
3.229368e-03
1.017734e-03
2.731884e-04
7.419642e-05
3.820553e-05
3.022715e-05
1.931354e-05
9.191838e-06
3.029518e-06
5.747586e-07
3.403672e-07
1.919047e-07
1.557830e-07
9.941824e-08
4.189859e-08
9.187106e-09
1.723713e-09
9.280014e-10
3.437872e-10
1.850867e-10
1.115045e-10
4.082430e-11
2.153062e-11
1.148733e-11
5.610032e-12
4.365777e-12
2.642822e-12
1.250214e-12
5.482056e-13
2.541767e-13
9.619940e-14
1.596363e-14
1.300126e-15
1.646347e-15
1.293943e-15
7.782254e-16
3.547798e-16
1.588794e-16
7.487732e-17
2.789166e-17
3.808420e-18
3.515000e-19
1.734078e-19
2.197441e-20
1.290974e-20
5.849044e-21
5.535361e-21
3.117820e-21
1.446036e-21
1.000000e+00
1.000000e+00
1.000000e+00
1.000000e+00
1.000000e+00
1.000000e+00
1.000000e+00
1.000000e+00
1.000000e+00
1.000000e+00
9.999999e-01
9.999999e-01
9.999991e-01
9.999968e-01
9.999983e-01
9.999279e-01
9.999843e-01
9.969158e-01
9.968201e-01
9.755593e-01
9.436731e-01
8.872094e-01
7.906960e-01
7.010345e-01
5.219033e-01
4.173802e-01
2.503060e-01
1.743901e-01
9.764295e-02
5.032902e-02
2.349363e-02
9.964477e-03
3.817936e-03
1.294038e-03
3.729497e-04
8.520096e-05
3.157338e-05
1.954006e-05
1.423900e-05
9.667277e-06
5.086762e-06
1.892808e-06
5.308473e-07
1.408946e-07
8.836490e-08
7.624315e-08
5.047453e-08
2.534078e-08
1.190227e-08
5.726463e-09
2.642149e-09
1.256372e-09
5.975446e-10
2.918209e-10
1.058168e-10
1.549087e-11
2.575979e-12
2.377045e-12
7.600371e-13
3.975442e-13
2.416813e-13
1.962469e-13
1.279293e-13
5.224379e-14
9.529233e-15
9.332102e-16
4.731587e-16
2.767873e-16
1.621523e-16
7.390908e-17
5.666050e-17
3.597731e-17
1.686651e-17
7.794568e-18
3.567949e-18
1.605105e-18
7.251084e-19
3.226676e-19
1.433496e-19
6.001359e-20
1.000000e+00
1.000000e+00
1.000000e+00
1.000000e+00
1.000000e+00
1.000000e+00
1.000000e+00
1.000000e+00
1.000000e+00
1.000000e+00
1.000000e+00
9.999999e-01
9.999999e-01
9.999983e-01
9.999989e-01
9.999674e-01
9.999922e-01
9.986374e-01
9.985869e-01
9.923721e-01
9.749080e-01
9.412195e-01
8.823138e-01
7.836399e-01
6.994157e-01
5.244217e-01
4.205973e-01
2.545994e-01
1.790350e-01
1.014583e-01
5.356789e-02
2.549981e-02
1.101233e-02
4.342189e-03
1.569456e-03
5.153196e-04
1.506230e-04
4.674657e-05
1.965447e-05
1.207510e-05
8.020438e-06
4.368630e-06
2.420741e-06
1.191395e-06
4.457308e-07
8.586459e-08
4.683367e-08
2.104104e-08
1.176205e-08
5.887400e-09
2.442900e-09
1.199131e-09
6.047115e-10
2.916046e-10
2.364151e-10
1.449910e-10
6.894755e-11
3.145294e-11
1.548972e-11
6.164856e-12
9.999378e-13
1.995203e-13
1.241232e-13
9.926232e-14
6.302029e-14
3.099401e-14
1.402508e-14
6.603662e-15
2.370361e-15
3.235014e-16
5.742108e-17
3.435211e-17
6.245051e-18
5.810218e-18
1.699499e-18
1.096695e-18
6.309458e-19
3.003957e-19
9.430334e-20
5.996353e-20
1.000000e+00
1.000000e+00
1.000000e+00
1.000000e+00
1.000000e+00
1.000000e+00
1.000000e+00
1.000000e+00
1.000000e+00
1.000000e+00
1.000000e+00
1.000000e+00
1.000000e+00
9.999992e-01
9.999993e-01
9.999850e-01
9.999984e-01
9.993941e-01
9.993794e-01
9.979380e-01
9.904786e-01
9.730250e-01
9.372501e-01
8.796915e-01
7.715003e-01
6.917951e-01
5.232616e-01
4.221870e-01
2.585848e-01
1.840323e-01
1.048701e-01
5.703737e-02
2.785275e-02
1.221487e-02
4.835350e-03
1.743684e-03
5.769410e-04
1.835018e-04
6.135367e-05
2.424715e-05
1.287251e-05
8.014815e-06
3.815219e-06
1.777362e-06
1.114114e-06
6.879681e-07
3.376941e-07
1.725284e-07
8.612542e-08
4.453636e-08
2.157296e-08
1.075566e-08
4.496392e-09
9.627928e-10
2.319890e-10
1.361887e-10
6.655065e-11
3.144496e-11
1.526820e-11
1.157422e-11
8.045771e-12
3.082211e-12
5.191138e-13
7.294491e-14
4.877480e-14
1.699995e-14
9.275343e-15
6.356626e-15
5.366300e-15
3.306821e-15
1.549792e-15
6.863044e-16
3.142941e-16
1.468451e-16
6.715247e-17
3.048950e-17
1.416417e-17
6.731601e-18
2.239685e-18
3.242521e-19
1.000000e+00
1.000000e+00
1.000000e+00
1.000000e+00
1.000000e+00
1.000000e+00
1.000000e+00
1.000000e+00
1.000000e+00
1.000000e+00
1.000000e+00
1.000000e+00
1.000000e+00
9.999996e-01
9.999999e-01
9.999930e-01
9.999990e-01
9.997744e-01
9.995680e-01
9.994482e-01
9.969488e-01
9.892334e-01
9.704505e-01
9.338058e-01
8.782916e-01
7.661927e-01
6.869147e-01
5.219774e-01
4.232942e-01
2.619799e-01
1.899710e-01
1.068034e-01
5.994387e-02
3.037237e-02
1.380080e-02
5.614014e-03
2.046678e-03
6.775901e-04
2.134794e-04
7.119280e-05
2.700293e-05
1.364044e-05
9.848505e-06
4.503115e-06
1.503063e-06
6.966300e-07
3.220475e-07
1.761518e-07
8.458129e-08
4.085399e-08
2.164093e-08
1.094697e-08
8.782816e-09
5.637133e-09
2.826243e-09
1.344004e-09
6.568712e-10
2.711757e-10
5.322864e-11
1.240350e-11
7.949533e-12
6.190082e-12
3.901235e-12
1.913894e-12
8.729728e-13
4.385739e-13
1.511899e-13
2.080308e-14
4.520967e-15
3.358207e-15
1.040438e-15
3.860524e-16
2.678789e-16
1.184929e-16
5.785239e-17
2.849011e-17
8.338739e-18
6.508123e-18
5.408105e-18
2.762484e-18
1.000000e+00
1.000000e+00
1.000000e+00
1.000000e+00
1.000000e+00
1.000000e+00
1.000000e+00
1.000000e+00