# vtk DataFile Version 3.0
MUSCL
ASCII
DATASET STRUCTURED_POINTS
DIMENSIONS 80 80 1
ORIGIN 0 0 0
SPACING 0.0125 0.0125 1
POINT_DATA 6400
SCALARS Temperature double 1
LOOKUP_TABLE default
0.000000e+00
-6.739982e-01
-1.939413e-01
-2.456743e-02
-3.525332e-04
2.558764e-05
2.413608e-06
-6.581415e-07
-2.659983e-07
-1.243636e-07
-5.156232e-08
-2.287460e-08
-1.022548e-08
-4.419624e-09
-1.867063e-09
-3.127748e-10
4.437366e-12
3.863375e-12
1.753558e-12
4.983629e-13
1.728662e-13
1.073128e-13
5.243362e-14
2.253290e-14
9.178417e-15
3.611415e-15
1.394838e-15
5.332375e-16
1.994218e-16
7.233675e-17
2.540817e-17
8.607999e-18
2.947573e-18
9.159213e-19
2.803429e-19
8.357813e-20
2.383638e-20
6.532276e-21
1.877513e-21
4.883778e-22
1.180286e-22
2.814932e-23
6.567607e-24
1.322532e-24
1.731345e-25
-5.069209e-28
-1.388132e-27
-1.866550e-27
-1.473996e-27
-8.714770e-28
-6.021905e-28
-4.021498e-28
-2.076245e-28
-6.308314e-29
-5.138405e-30
1.448770e-30
1.435967e-30
8.134431e-31
4.380682e-31
2.269284e-31
1.179058e-31
2.662952e-32
5.359967e-33
-3.549851e-34
-2.527414e-34
-8.107115e-35
-2.784571e-35
-9.907715e-36
-3.685004e-36
-1.456260e-36
-6.000968e-37
-2.488007e-37
-1.012874e-37
-3.979460e-38
-1.657252e-38
-1.093367e-39
1.794592e-40
3.804805e-41
1.647861e-41
1.138876e-41
1.326002e+00
6.739982e-01
1.939413e-01
2.456743e-02
3.525332e-04
-2.558764e-05
-2.413608e-06
6.581415e-07
2.659983e-07
1.243636e-07
5.156232e-08
2.287460e-08
1.022548e-08
4.419624e-09
1.867063e-09
3.127748e-10
-4.437366e-12
-3.863375e-12
-1.753558e-12
-4.983629e-13
-1.728662e-13
-1.073128e-13
-5.243362e-14
-2.253290e-14
-9.178417e-15
-3.611415e-15
-1.394838e-15
-5.332375e-16
-1.994218e-16
-7.233675e-17
-2.540817e-17
-8.607999e-18
-2.947573e-18
-9.159213e-19
-2.803429e-19
-8.357813e-20
-2.383638e-20
-6.532276e-21
-1.877513e-21
-4.883778e-22
-1.180286e-22
-2.814932e-23
-6.567607e-24
-1.322532e-24
-1.731345e-25
5.069209e-28
1.388132e-27
1.866550e-27
1.473996e-27
8.714770e-28
6.021905e-28
4.021498e-28
2.076245e-28
6.308314e-29
5.138405e-30
-1.448770e-30
-1.435967e-30
-8.134431e-31
-4.380682e-31
-2.269284e-31
-1.179058e-31
-2.662952e-32
-5.359967e-33
3.549851e-34
2.527414e-34
8.107115e-35
2.784571e-35
9.907715e-36
3.685004e-36
1.456260e-36
6.000968e-37
2.488007e-37
1.012874e-37
3.979460e-38
1.657252e-38
1.093367e-39
-1.794592e-40
-3.804805e-41
-1.647861e-41
-1.138876e-41
1.041963e+00
9.580374e-01
5.985727e-01
2.398056e-01
5.878471e-02
3.831451e-03
-1.326650e-04
-3.822116e-05
-1.829973e-05
-8.553061e-06
-3.987533e-06
-1.905978e-06
-8.625907e-07
-2.404170e-07
1.058249e-09
1.501666e-09
1.204061e-09
3.594114e-10
4.395412e-12
-1.396422e-12
-7.541189e-13
-1.360891e-13
-1.468039e-14
2.146456e-14
1.247275e-14
2.346066e-15
-5.196142e-16
-4.537753e-16
-1.864504e-16
-5.422382e-17
-1.318585e-17
-5.720632e-18
2.023978e-18
-2.282391e-19
4.557467e-21
-2.949125e-21
-9.742562e-21
-5.704726e-21
1.615868e-21
4.255117e-22
-3.903067e-23
-2.466416e-23
-1.168677e-23
-3.716874e-24
-1.076830e-24
-3.151143e-25
-1.493146e-25
-1.046426e-25
-8.131447e-26
-6.374217e-26
-4.545435e-26
-2.574523e-26
-1.082428e-26
-1.817151e-27
2.333265e-28
1.831517e-28
1.366350e-28
7.154983e-29
3.669262e-29
1.913983e-29
3.594821e-30
-2.948675e-32
-7.348481e-32
-3.322681e-32
-1.425025e-32
-6.816553e-33
-3.144252e-33
-1.339272e-33
-5.363636e-34
-2.083898e-34
-8.039020e-35
-3.104872e-35
-1.191688e-35
-4.753254e-36
-1.835811e-37
2.646454e-38
1.116027e-38
4.547333e-39
1.642512e-39
1.140958e-39
1.000576e+00
9.994242e-01
8.851426e-01
5.932028e-01
2.706147e-01
8.387798e-02
1.628786e-02
1.334676e-03
5.021574e-04
2.155231e-04
7.750994e-05
9.928457e-06
-8.334914e-07
-8.568881e-07
-5.311591e-07
-1.726157e-07
-7.974994e-09
8.078019e-10
7.195044e-10
1.954801e-10
1.327394e-12
-8.004524e-13
-9.051836e-13
-4.878919e-13
-2.176191e-13
-9.237571e-14
-3.853787e-14
-1.340590e-14
-4.361195e-15
-1.789708e-15
-7.736989e-16
-3.059429e-16
-1.239752e-16
-3.909518e-17
-1.196443e-17
-3.668340e-18
-9.921809e-19
-2.627884e-19
-9.646369e-20
-2.887631e-20
-6.386747e-21
-6.179783e-22
2.169789e-23
1.634677e-23
1.065407e-23
6.164049e-24
3.361820e-24
1.629982e-24
6.398287e-25
1.609177e-25
-1.890564e-26
2.165999e-26
1.195029e-26
-9.314494e-28
-1.497912e-26
-1.410042e-26
-7.895544e-27
-3.983279e-27
-1.297759e-27
1.933844e-29
1.944764e-29
1.534029e-29
7.188907e-30
3.254718e-30
1.471329e-30
6.726405e-31
3.072137e-31
1.381107e-31
6.042947e-32
2.557900e-32
1.043333e-32
4.193032e-33
1.306528e-33
2.561187e-35
-1.333080e-35
-3.707633e-36
-1.212027e-36
-4.416585e-37
-1.583987e-37
-6.635389e-38
9.999018e-01
1.000098e+00
9.863087e-01
8.522952e-01
5.808472e-01
2.960944e-01
9.894811e-02
2.195101e-02
6.751884e-04
2.228139e-04
1.476542e-04
9.481482e-05
4.283762e-05
8.491748e-06
-5.347736e-07
-4.198603e-07
-2.672980e-07
-8.605524e-08
6.449019e-10
5.329469e-10
3.922120e-10
1.844702e-10
7.989759e-11
3.334044e-11
1.224975e-11
2.595099e-12
-1.240921e-14
-2.156817e-14
-4.345531e-15
-1.836550e-15
-5.085550e-16
-6.120583e-17
-3.113591e-17
-2.164196e-17
-1.121664e-17
-2.602095e-20
-8.079787e-19
-2.898843e-19
-1.224372e-19
-4.683340e-20
-1.799359e-20
-6.275379e-21
-2.210699e-21
-1.139280e-21
-6.888610e-22
-4.129490e-22
-2.365425e-22
-1.303586e-22
-6.911574e-23
-3.073433e-23
-1.029790e-23
-2.737268e-24
-2.122175e-25
3.777221e-26
-1.291716e-26
-1.332559e-26
3.486762e-27
-3.043809e-27
-4.245764e-27
-2.959539e-27
-1.510095e-27
-7.871854e-28
-4.016797e-28
-1.965350e-28
-9.220529e-29
-4.220596e-29
-1.888894e-29
-8.301290e-30
-3.592421e-30
-1.548186e-30
-4.291631e-31
3.535129e-33
2.090620e-33
1.727834e-33
7.451582e-34
2.826645e-34
1.030590e-34
3.727684e-35
1.332770e-35
5.267861e-36
9.999709e-01
1.000029e+00
9.997055e-01
9.651740e-01
8.296761e-01
5.645794e-01
3.365588e-01
1.267318e-01
3.480734e-02
2.698251e-03
8.824490e-05
7.446468e-05
6.549790e-05
4.348074e-05
1.942372e-05
3.503405e-06
-3.241153e-07
-2.249534e-07
-1.392689e-07
-5.988338e-08
-2.506286e-08
-1.056968e-08
-3.597647e-09
-3.652429e-10
9.411935e-12
1.275045e-11
3.299087e-12
9.965044e-14
-4.693523e-14
-2.719794e-14
-9.637159e-15
-3.773041e-15
-1.618999e-15
-7.112460e-16
-3.275759e-16
-9.715762e-17
-4.444779e-18
-2.381241e-19
2.486711e-19
1.924941e-19
8.548294e-20
3.446989e-20
1.164363e-20
3.350519e-21
8.615211e-22
2.217871e-22
-1.109398e-23
-7.540945e-23
-3.664767e-23
-4.269938e-23
-3.241599e-23
-1.757114e-23
-8.225229e-24
-3.111752e-24
-1.505861e-24
-9.280820e-25
-3.369696e-25
-1.235906e-26
3.836521e-27
-9.092663e-28
-2.178739e-29
-4.116583e-28
-8.057713e-29
-1.581823e-28
-4.522954e-30
2.057035e-29
1.538353e-29
6.508972e-30
9.688471e-31
-9.937390e-31
-1.052884e-30
-7.570052e-31
-3.105726e-31
-1.252470e-31
-4.799312e-32
-1.797949e-32
-6.635517e-33
-2.612276e-33
-7.167188e-34
-7.617127e-35
9.999966e-01
1.000003e+00
1.000018e+00
9.984263e-01
9.485062e-01
8.111076e-01
5.426865e-01
3.576685e-01
1.479507e-01
5.014815e-02
9.630673e-03
1.374050e-04
3.701852e-05
3.939395e-05
3.561924e-05
2.247138e-05
1.107458e-05
4.564100e-06
1.884522e-06
7.281743e-07
1.233226e-07
-7.455093e-09
-7.735150e-09
-4.865711e-09
-1.592266e-09
6.498403e-12
2.511694e-11
1.084591e-11
4.160852e-12
1.743230e-12
7.473676e-13
3.285631e-13
1.426366e-13
5.512458e-14
6.620202e-15
-1.688769e-16
-1.941286e-16
-8.992498e-17
-3.882850e-17
-1.751047e-17
-8.067126e-18
-3.724649e-18
-1.713981e-18
-7.852594e-19
-3.341240e-19
-1.124377e-19
-2.818425e-20
-6.168045e-21
-1.970807e-21
-1.652958e-22
-1.029941e-23
5.840616e-24
1.768438e-25
-1.331221e-24
-1.242695e-24
-4.449062e-25
-8.173969e-25
-6.730107e-25
-2.659894e-25
-8.295243e-26
-1.507048e-26
-1.704771e-26
-1.685774e-26
-1.001189e-26
-5.225258e-27
-2.486512e-27
-1.160817e-27
-4.442205e-28
-7.687369e-29
1.260012e-30
-9.077286e-31
-6.754621e-31
5.906005e-31
-8.771552e-32
-3.700950e-32
-2.887036e-33
-3.206528e-33
-2.734828e-33
-1.903511e-33
-8.965948e-34
1.000000e+00
1.000000e+00
1.000007e+00
1.000038e+00
9.920274e-01
9.350052e-01
7.950737e-01
5.168636e-01
3.729769e-01
1.556307e-01
5.846499e-02
1.608701e-02
2.096073e-03
3.751888e-05
2.659107e-05
2.056460e-05
1.042614e-05
4.637861e-06
1.956899e-06
1.089241e-06
7.869311e-07
3.308600e-07
4.659023e-08
-5.480872e-09
-4.251982e-09
-2.528046e-09
-1.097307e-09
-4.660654e-10
-1.980290e-10
-8.427336e-11
-3.542061e-11
-9.004106e-12
8.778463e-14
8.129049e-14
6.486188e-14
3.118410e-14
1.397856e-14
6.110213e-15
2.643324e-15
1.143488e-15
4.992401e-16
2.244484e-16
9.207589e-17
1.440341e-17
1.948897e-18
3.886814e-19
4.843574e-20
2.410698e-21
-1.315621e-21
-2.272910e-21
-2.063204e-21
-1.091649e-21
-5.056147e-22
-2.139289e-22
-8.704484e-23
-1.685818e-23
-9.213325e-25
-6.653059e-25
-5.041039e-25
-3.491436e-25
-2.196910e-25
-1.055404e-25
-1.095900e-26
-4.035091e-29
-3.733251e-27
-1.635950e-27
-1.028845e-27
-8.301849e-28
-5.484975e-28
-2.747932e-28
-1.166383e-28
-5.015514e-29
-2.256990e-29
-9.845614e-30
-2.978636e-30
-1.248766e-31
5.113086e-34
7.435835e-33
2.475775e-33
7.852464e-34
9.999997e-01
1.000000e+00
9.999997e-01
1.000029e+00
9.999679e-01
9.844400e-01
9.215688e-01
7.794290e-01
5.212517e-01
3.784556e-01
1.651027e-01
6.672415e-02
2.049803e-02
4.188668e-03
3.789430e-04
8.280124e-05
4.812641e-05
2.588233e-05
9.316372e-06
1.952763e-06
7.961169e-07
6.538308e-07
4.197552e-07
2.037328e-07
8.574518e-08
3.587801e-08
1.509265e-08
6.654804e-09
1.944757e-09
-5.521429e-11
-4.671382e-11
-3.168593e-11
-1.749991e-11
-7.634139e-12
-3.388650e-12
-1.503856e-12
-6.654768e-13
-2.940011e-13
-1.295033e-13
-5.889085e-14
-1.529547e-14
2.222728e-16
1.199358e-16
7.786844e-17
1.470101e-17
5.453823e-19
-4.266697e-19
-1.723528e-19
-2.414751e-21
7.420901e-22
-1.364844e-21
-8.352119e-22
-3.434846e-22
-1.841761e-22
-1.188333e-22
-7.848334e-23
-4.309557e-23
-1.419330e-23
-6.079654e-25
2.680389e-25
-1.598583e-25
-8.889350e-26
-3.375736e-25
-3.255950e-25
-1.619618e-25
-5.434345e-26
-1.013556e-27
-5.302458e-28
-4.180198e-28
-2.092500e-28
-5.756321e-29
-3.860808e-29
-4.404068e-30
-1.314787e-29
-8.175452e-30
-4.310058e-30
-1.784885e-30
-7.567692e-31
-3.226951e-31
-1.349373e-31
9.999997e-01
1.000000e+00
1.000000e+00
1.000013e+00
1.000016e+00
9.987792e-01
9.785540e-01
9.079264e-01
7.697936e-01
5.221650e-01
3.811322e-01
1.772104e-01
7.573360e-02
2.536687e-02
5.891182e-03
4.453381e-04
5.207764e-05
3.109438e-05
2.441297e-05
1.317302e-05
3.684744e-06
7.156853e-07
4.144273e-07
2.098997e-07
8.825005e-08
3.235671e-08
1.347605e-08
6.576272e-09
5.305871e-09
3.094019e-09
1.338293e-09
5.675660e-10
2.370002e-10
9.807330e-11
4.007723e-11
1.607439e-11
6.523308e-12
2.010953e-12
8.767422e-14
-6.338858e-14
-5.302608e-14
-2.765996e-14
-3.566525e-15
1.277799e-16
1.044965e-16
4.002964e-17
-3.407758e-19
-6.026193e-19
-4.361114e-19
-1.795926e-19
-8.011041e-20
-3.449625e-20
-1.414189e-20
-3.287856e-21
-9.132182e-23
-5.186626e-23
-3.572616e-23
-2.972120e-23
-2.522610e-23
-1.469361e-23
-6.541292e-24
-8.745960e-25
-3.500939e-25
-2.641452e-25
-2.710876e-25
-1.882412e-25
-1.104517e-25
-5.048416e-26
-2.282803e-26
-1.039476e-26
-4.596128e-27
-1.730629e-27
-4.672128e-28
-2.555467e-30
-2.998931e-30
-2.734103e-30
-6.891059e-31
-6.523105e-32
-2.229217e-32
-5.139521e-32
9.999998e-01
1.000000e+00
1.000000e+00
1.000002e+00
1.000013e+00
1.000015e+00
9.972217e-01
9.709763e-01
8.969062e-01
7.615390e-01
5.236712e-01
3.741134e-01
1.875456e-01
8.581000e-02
3.196789e-02
8.897023e-03
1.251474e-03
3.813256e-05
2.472073e-05
2.097088e-05
1.516408e-05
6.490232e-06
1.832873e-06
6.986952e-07
4.055993e-07
2.198666e-07
9.674890e-08
2.389433e-08
5.397664e-09
2.192016e-09
1.349243e-09
4.230493e-10
1.795510e-10
7.583347e-11
1.843443e-11
1.189391e-11
6.420243e-12
4.678514e-12
2.574008e-12
7.326234e-13
-4.303716e-14
-4.229389e-14
-3.240885e-14
-1.177879e-14
-5.968572e-16
1.623295e-16
8.817614e-17
4.399629e-17
1.986377e-17
8.432266e-18
1.802195e-18
-2.963404e-20
-2.367608e-20
-1.631748e-20
-7.669919e-21
-2.835484e-21
-5.540122e-22
-1.745878e-23
-2.204786e-23
-1.365756e-23
-1.172310e-23
-7.251948e-24
-3.888793e-24
-1.661527e-24
-2.211903e-25
-8.748686e-26
-8.580772e-26
-4.745223e-26
-1.093919e-26
-7.192379e-27
-4.310051e-27
-3.214005e-27
-2.034955e-27
-1.019927e-27
-4.195138e-28
-1.712545e-28
-7.371485e-29
-3.257352e-29
-1.018451e-29
-1.564720e-30
9.999999e-01
1.000000e+00
1.000000e+00
1.000000e+00
1.000007e+00
1.000008e+00
9.999839e-01
9.941583e-01
9.638524e-01
8.861282e-01
7.588629e-01
5.119107e-01
3.893777e-01
1.921515e-01
9.240651e-02
3.720769e-02
1.168647e-02
2.350638e-03
6.117551e-05
1.950253e-05
1.577016e-05
1.231413e-05
6.740448e-06
1.806648e-06
4.279173e-07
2.142431e-07
1.787482e-07
1.200176e-07
6.430578e-08
3.077590e-08
1.523585e-08
7.069434e-09
3.308225e-09
1.521750e-09
7.271916e-10
2.388402e-10
3.444256e-11
3.243581e-12
3.360150e-12
2.381882e-12
1.301526e-12
3.470467e-13
-2.887461e-14
-2.567481e-14
-1.599445e-14
-7.371895e-15
-3.306515e-15
-9.077759e-16
1.558297e-17
1.150825e-17
8.741846e-18
4.460925e-18
1.966147e-18
7.204052e-19
3.629126e-20
-2.322138e-21
-3.226771e-21
-1.473231e-21
-5.652898e-22
-9.858956e-23
-9.431761e-24
-1.180251e-23
-9.785197e-24
-7.541808e-24
-4.836544e-24
-2.730823e-24
-1.447972e-24
-7.410916e-25
-3.769174e-25
-1.508735e-25
-3.087823e-26
-2.109006e-27
-1.863412e-27
-6.236989e-28
-4.088395e-28
-2.296809e-29
-3.461091e-29
-3.071050e-29
-2.473482e-29
-1.260830e-29
1.000000e+00
1.000000e+00
1.000000e+00
1.000000e+00
1.000002e+00
1.000006e+00
1.000007e+00
9.997600e-01
9.914717e-01
9.548673e-01
8.817712e-01
7.454401e-01
5.159735e-01
3.938663e-01
1.986883e-01
9.893173e-02
4.199762e-02
1.453895e-02
3.622057e-03
3.345877e-04
1.825707e-05
1.552195e-05
1.279146e-05
9.409182e-06
4.024876e-06
7.823351e-07
1.948981e-07
1.133483e-07
4.603906e-08
2.242065e-08
1.527936e-08
6.444372e-09
2.722090e-09
1.243559e-09
6.921150e-10
5.750850e-10
3.207689e-10
8.617681e-11
2.910630e-12
2.383141e-12
1.633653e-12
1.058411e-12
5.676873e-13
2.153115e-13
6.425295e-14
1.924497e-15
-3.259179e-15
-2.918310e-15
-1.669983e-15
-7.112716e-16
-3.135846e-16
-8.454707e-17
5.966587e-19
1.229616e-18
8.971860e-19
3.859746e-19
7.475723e-20
-1.572208e-21
-1.015271e-21
-6.609895e-22
-2.012480e-22
-8.658484e-24
-6.696298e-24
-6.760149e-24
-4.190267e-24
-2.117028e-24
-9.692144e-25
-7.237673e-25
-3.274298e-25
-2.791312e-25
-1.895046e-25
-9.703591e-26
-4.372573e-26
-1.920907e-26
-8.102824e-27
-3.634228e-27
-1.361844e-27
-2.233492e-28
-1.244858e-29
-1.121268e-29
1.000000e+00
1.000000e+00
1.000000e+00
1.000000e+00
1.000000e+00
1.000002e+00
1.000007e+00
9.999108e-01
9.998703e-01
9.863754e-01
9.508885e-01
8.715929e-01
7.385050e-01
5.162026e-01
3.972480e-01
2.052255e-01
1.052186e-01
4.639157e-02
1.744438e-02
5.003405e-03
5.917487e-04
-7.935467e-06
6.651816e-06
9.049089e-06
8.002318e-06
5.211007e-06
2.603644e-06
1.211972e-06
5.916893e-07
2.863446e-07
1.397088e-07
6.603040e-08
3.219969e-08
1.295366e-08
2.808382e-09
5.981445e-10
4.740311e-10
3.447221e-10
1.585606e-10
3.825153e-11
7.869804e-13
9.178534e-13
5.560027e-13
1.844909e-13
1.350139e-13
7.643320e-14
3.194573e-14
1.123871e-14
3.179303e-15
-2.114899e-16
-3.266782e-16
-2.679710e-16
-1.547542e-16
-4.501160e-17
6.705400e-19
5.035498e-19
4.067936e-19
1.912358e-19
4.523112e-20
-4.318241e-22
-7.915646e-22
-5.411493e-22
-2.550252e-22
-1.189245e-22
-5.730165e-23
-2.735415e-23
-1.409405e-23
-7.278034e-24
-2.541832e-24
-3.205033e-25
-1.502836e-25
-6.030918e-26
-2.543320e-26
-1.220220e-26
-8.011487e-27
-3.777961e-27
-2.645368e-27
-1.623036e-27
-6.366334e-28
-1.680221e-28
1.000000e+00
1.000000e+00
1.000000e+00
1.000000e+00
1.000000e+00
1.000000e+00
1.000004e+00
9.999624e-01
1.000014e+00
9.977082e-01
9.838676e-01
9.447048e-01
8.634940e-01
7.326561e-01
5.157945e-01
4.002433e-01
2.116133e-01
1.117218e-01
5.055315e-02
2.038503e-02
7.018731e-03
1.774093e-03
2.211083e-04
8.293984e-06
6.380935e-06
4.886328e-06
3.446216e-07
6.064697e-07
4.237520e-07
2.926301e-07
7.177982e-08
5.902547e-08
3.104088e-08
2.622207e-08
1.612690e-08
5.552852e-09
6.006120e-10
2.862908e-10
2.503004e-10
1.732219e-10
8.817815e-11
3.929063e-11
1.406919e-11
2.046860e-12
1.401549e-13
6.109107e-14
2.227902e-14
9.398589e-15
5.979098e-15
3.566540e-15
1.541593e-15
3.159978e-16
-1.471491e-16
-1.272664e-16
-7.602377e-17
-3.179460e-17
-4.631773e-18
1.570503e-19
2.161845e-19
1.236743e-19
5.245887e-20
2.200638e-20
9.107545e-21
3.722259e-21
1.515317e-21
6.231413e-22
1.945875e-22
-8.095665e-25
-5.936690e-24
-4.356375e-24
-2.134685e-24
-1.067523e-24
-4.955387e-25
-2.328597e-25
-7.757436e-26
-1.046434e-26
-2.121081e-27
-1.588352e-27
-1.212913e-27
-6.257635e-28
1.000000e+00
1.000000e+00
1.000000e+00
1.000000e+00
1.000000e+00
1.000000e+00
1.000002e+00
9.999846e-01
9.999962e-01
9.999508e-01
9.962336e-01
9.802442e-01
9.386992e-01
8.559205e-01
7.276665e-01
5.150155e-01
4.023089e-01
2.167392e-01
1.189755e-01
5.367771e-02
2.136533e-02
7.336571e-03
2.223889e-03
6.975463e-04
3.129849e-04
1.387706e-04
6.296363e-05
2.765133e-05
1.233010e-05
5.681810e-06
2.668459e-06
8.761651e-07
1.238201e-07
2.292586e-08
2.048566e-08
1.651435e-08
9.003422e-09
2.354720e-09
2.493125e-10
1.294231e-10
6.434356e-11
3.625326e-11
2.876077e-11
1.809166e-11
8.473190e-12
3.622704e-12
1.304870e-12
1.873087e-13
9.566284e-15
2.659111e-16
9.339688e-16
9.127567e-16
5.332091e-16
1.894247e-16
-1.251579e-17
-3.599028e-17
-3.333898e-17
-1.688624e-17
-7.421031e-18
-3.209510e-18
-1.396415e-18
-6.021995e-19
-2.582015e-19
-1.114832e-19
-4.058228e-20
-5.832749e-21
-3.137409e-23
1.984277e-22
1.176881e-22
4.764701e-23
1.950588e-23
6.943994e-24
1.095945e-24
-2.407617e-25
-1.900271e-25
-1.148755e-25
-4.671083e-26
-9.979471e-27
-9.782372e-28
-5.337332e-28
1.000000e+00
1.000000e+00
1.000000e+00
1.000000e+00
1.000000e+00
1.000000e+00
1.000001e+00
9.999937e-01
9.999931e-01
1.000002e+00
9.996668e-01
9.947852e-01
9.764300e-01
9.334866e-01
8.476209e-01
7.250100e-01
5.158551e-01
4.044754e-01
2.192218e-01
1.311261e-01
6.147280e-02
2.459696e-02
8.053934e-03
1.870481e-03
3.549157e-04
1.279186e-04
5.887605e-05
2.752190e-05
1.243660e-05
5.615295e-06
2.737604e-06
2.194102e-06
1.209247e-06
3.132797e-07
2.165252e-08
1.351260e-08
1.225269e-08
9.520895e-09
4.842703e-09
2.265358e-09
8.977315e-10
1.861370e-10
2.547183e-11
1.639450e-11
8.638089e-12
3.429924e-12
2.707139e-12
1.676200e-12
7.682963e-13
2.186058e-13
5.753335e-15
-1.306895e-15
-6.344505e-16
6.594311e-17
9.867306e-17
5.155265e-17
6.556034e-18
-5.333035e-18
-5.193008e-18
-3.451197e-18
-1.446197e-18
-6.288438e-19
-2.675457e-19
-1.149762e-19
-7.188177e-20
-3.637582e-20
-1.636823e-20
-7.607597e-21
-3.688540e-21
-1.356925e-21
-1.555816e-22
1.214515e-23
7.736027e-24
4.001869e-24
1.231586e-24
-8.987803e-26
-8.020296e-26
-5.150822e-26
-2.507339e-26
-1.114210e-26
1.000000e+00
1.000000e+00
1.000000e+00
1.000000e+00
1.000000e+00
1.000000e+00
1.000000e+00
9.999985e-01
9.999945e-01
9.999955e-01
9.999905e-01
9.992693e-01
9.929911e-01
9.724115e-01
9.302084e-01
8.319039e-01
7.228709e-01
5.195147e-01
4.071264e-01
2.222657e-01
1.367693e-01
6.852854e-02
3.010936e-02
1.132760e-02
3.472315e-03
9.734966e-04
4.609269e-04
2.234511e-04
1.163482e-04
3.995235e-05
7.701659e-06
2.003655e-06
1.797606e-06
1.346118e-06
6.213973e-07
1.345637e-07
1.151815e-08
7.770093e-09
4.381927e-09
2.102138e-09
1.746847e-09
1.126707e-09
5.511107e-10
2.551108e-10
1.040409e-10
1.918499e-11
1.342477e-12
1.382609e-12
9.352253e-13
6.815074e-13
3.917362e-13
1.370504e-13
1.743063e-14
6.167862e-16
-1.161062e-16
-4.603221e-17
-1.411816e-17
-1.008801e-17
-8.663771e-18
-7.729013e-18
-5.511907e-18
-3.364392e-18
-1.668015e-18
-4.912561e-19
-8.271286e-20
-3.661266e-20
-1.540026e-20
-5.446878e-21
-3.745352e-21
-2.806650e-21
-1.810353e-21
-7.749175e-22
-1.551392e-22
6.124763e-24
2.949919e-24
1.878489e-24
8.157221e-25
3.629580e-25
1.227606e-25
1.960905e-26
1.000000e+00
1.000000e+00
1.000000e+00
1.000000e+00
1.000000e+00
1.000000e+00
1.000000e+00
1.000000e+00
9.999972e-01
9.999960e-01
9.999983e-01
9.999401e-01
9.989965e-01
9.902106e-01
9.711810e-01
9.210101e-01
8.231785e-01
7.195898e-01
5.218681e-01
4.078522e-01
2.280654e-01
1.365384e-01
6.943517e-02
3.118920e-02
1.170349e-02
3.388424e-03
5.621800e-04
2.197030e-04
1.202772e-04
9.824770e-05
5.526679e-05
1.561411e-05
1.819215e-06
1.247214e-06
1.022142e-06
6.838766e-07
3.478462e-07
1.631368e-07
6.152226e-08
1.105277e-08
1.194409e-09
1.104166e-09
5.533482e-10
2.604200e-10
1.933042e-10
1.210690e-10
6.171289e-11
2.216031e-11
2.458096e-12
5.454496e-13
3.808951e-13
2.801536e-13
1.670420e-13
7.865668e-14
3.345728e-14
1.457603e-14
6.420442e-15
2.843770e-15
1.251570e-15
5.691348e-16
1.748562e-16
4.404917e-19
-1.966264e-18
-1.923150e-18
-1.081620e-18
-4.775308e-19
-1.975410e-19
-8.609627e-20
-2.525577e-20
-2.842670e-21
-1.597682e-21
-1.296635e-21
-8.576306e-22
-4.365833e-22
-1.830955e-22
-7.811194e-23
-2.823667e-23
-3.477249e-24
2.278355e-25
1.436641e-25
1.000000e+00
1.000000e+00
1.000000e+00
1.000000e+00
1.000000e+00
1.000000e+00
1.000000e+00
1.000000e+00
9.999994e-01
9.999973e-01
9.999981e-01
9.999749e-01
9.999745e-01
9.974797e-01
9.896814e-01
9.671894e-01
9.135090e-01
8.160704e-01
7.166738e-01
5.215262e-01
4.107573e-01
2.331369e-01
1.462730e-01
7.654502e-02
3.638595e-02
1.519940e-02
5.242088e-03
1.308762e-03
2.900906e-04
1.028264e-04
8.358270e-05
6.183386e-05
2.966723e-05
7.803993e-06
1.128812e-06
5.980551e-07
3.137491e-07
1.617100e-07
1.254165e-07
7.859526e-08
3.733552e-08
1.751579e-08
6.905115e-09
1.213530e-09
1.010287e-10
9.406791e-11
6.055265e-11
4.968005e-11
3.059300e-11
1.164033e-11
2.020124e-12
2.948138e-13
1.394496e-13
6.985362e-14
3.386092e-14
1.011221e-14
5.099835e-15
2.812960e-15
7.640606e-16
5.357031e-16
4.564408e-16
2.698301e-16
1.184600e-16
5.197565e-17
2.344250e-17
8.149391e-18
5.879017e-19
-1.219395e-19
-9.109470e-20
-4.960591e-20
-1.411559e-20
-1.572719e-21
-8.095600e-22
-2.704202e-22
-8.059508e-23
-5.350833e-23
-5.208708e-23
-3.397573e-23
-1.657509e-23
-7.476373e-24
1.000000e+00
1.000000e+00
1.000000e+00
1.000000e+00
1.000000e+00
1.000000e+00
1.000000e+00
1.000000e+00
1.000000e+00
9.999986e-01
9.999987e-01
9.999880e-01
9.999886e-01
9.996229e-01
9.969519e-01
9.879689e-01
9.629909e-01
9.062474e-01
8.112783e-01
7.119949e-01
5.210659e-01
4.143351e-01
2.385065e-01
1.468432e-01
7.666888e-02
3.691474e-02
1.601348e-02
5.915141e-03
1.803403e-03
4.262945e-04
8.819419e-05
6.001818e-05
4.676228e-05
3.098066e-05
1.498196e-05
5.759017e-06
2.426064e-06
7.033852e-07
1.208594e-07
4.983908e-08
3.198109e-08
1.697175e-08
1.374919e-08
8.631611e-09
4.367218e-09
1.451849e-09
1.517390e-10
4.730533e-11
3.005635e-11
2.343886e-11
1.472306e-11
7.054569e-12
3.157716e-12
1.411131e-12
6.508323e-13
2.899445e-13
1.298371e-13
6.098644e-14
2.055871e-14
1.794468e-15
4.668420e-16
2.708689e-16
1.047924e-16
2.864718e-17
2.211867e-17
1.790770e-17
1.142525e-17
4.386340e-18
5.292567e-19
-4.574567e-20
-4.815994e-20
-2.802628e-20
-1.281456e-20
-6.131909e-21
-2.763235e-21
-7.100138e-22
-4.383234e-23
-3.330311e-23
-1.017490e-23
-5.410600e-24
1.000000e+00
1.000000e+00
1.000000e+00
1.000000e+00
1.000000e+00
1.000000e+00
1.000000e+00
1.000000e+00
1.000000e+00
9.999994e-01
9.999995e-01
9.999942e-01
9.999927e-01
9.999941e-01
9.993645e-01
9.962145e-01
9.859979e-01
9.586256e-01
8.993310e-01
8.088442e-01
7.067203e-01
5.196509e-01
4.154258e-01
2.428920e-01
1.590598e-01
8.335070e-02
4.024847e-02
1.763566e-02
6.881346e-03
2.320907e-03
6.550172e-04
1.605269e-04
5.856360e-05
3.686691e-05
2.332279e-05
1.079977e-05
4.227419e-06
2.605629e-06
1.479699e-06
7.778816e-07
3.034593e-07
6.904692e-08
1.389947e-08
8.739592e-09
4.646812e-09
3.574688e-09
2.185213e-09
8.289184e-10
1.447334e-10
1.653312e-11
1.302440e-11
3.773264e-12
2.236152e-12
1.209151e-12
3.823526e-13
2.486251e-13
8.688826e-14
5.903660e-14
4.894208e-14
3.044270e-14
1.409977e-14
6.400990e-15
2.948420e-15
1.132512e-15
1.304911e-16
6.643368e-18
1.035726e-17
9.212741e-18
5.685484e-18
2.727625e-18
1.133347e-18
4.924621e-19
1.440791e-19
-2.533549e-21
-3.450166e-21
-2.850871e-21
-1.436402e-21
-6.342959e-22
-2.952669e-22
-1.176128e-22
1.000000e+00
1.000000e+00
1.000000e+00
1.000000e+00
1.000000e+00
1.000000e+00
1.000000e+00
1.000000e+00
1.000000e+00
9.999998e-01
9.999998e-01
9.999982e-01
9.999945e-01
9.999953e-01
9.999358e-01
9.991129e-01
9.953295e-01
9.837959e-01
9.547191e-01
8.885324e-01
8.115510e-01
7.049414e-01
5.184782e-01
4.164934e-01
2.444282e-01
1.648702e-01
8.847596e-02
4.338894e-02
1.930737e-02
7.729872e-03
2.728441e-03
8.237477e-04
2.243870e-04
7.598304e-05
4.276356e-05
2.865358e-05
1.329770e-05
3.769000e-06
1.540984e-06
7.367554e-07
5.906218e-07
3.787514e-07
1.986998e-07
7.089096e-08
1.027847e-08
2.514339e-09
1.908146e-09
1.668625e-09
1.053359e-09
5.112816e-10
2.306288e-10
1.076463e-10
4.898349e-11
2.221928e-11
1.005928e-11
4.737094e-12
1.624679e-12
1.907785e-13
2.766645e-14
2.217398e-14
7.390753e-15
4.272267e-15
2.628129e-15
2.213663e-15
1.547079e-15
5.529208e-16
7.046434e-17
2.854738e-18
5.224187e-18
2.548163e-18
1.158452e-18
5.100656e-19
3.913075e-19
2.238914e-19
9.544038e-20
3.998276e-20
1.665587e-20
6.940742e-21
2.911073e-21
1.089077e-21
1.000000e+00
1.000000e+00
1.000000e+00
1.000000e+00
1.000000e+00
1.000000e+00
1.000000e+00
1.000000e+00
1.000000e+00
9.999999e-01
9.999999e-01
9.999998e-01
9.999970e-01
9.999960e-01
9.999982e-01
9.998353e-01
9.989900e-01
9.937521e-01
9.846085e-01
9.402941e-01
8.937404e-01
7.989466e-01
7.032357e-01
5.214218e-01
4.170601e-01
2.477774e-01
1.704486e-01
9.363034e-02
4.704208e-02
2.142118e-02
8.818427e-03
3.225247e-03
1.018297e-03
2.748675e-04
7.601133e-05
3.980284e-05
3.128617e-05
1.977803e-05
9.551497e-06
3.275018e-06
6.049581e-07
3.754513e-07
1.993462e-07
1.591463e-07
9.999649e-08
4.275765e-08
8.995141e-09
1.427218e-09
1.048321e-09
3.737891e-10
1.407367e-10
9.238447e-11
3.614019e-11
1.341014e-11
1.009467e-11
4.738828e-12
3.858728e-12
2.335630e-12
1.082072e-12
4.901236e-13
2.351107e-13
9.142287e-14
1.466446e-14
1.694494e-15
1.457167e-15
1.178432e-15
7.385847e-16
3.446895e-16
1.553116e-16
7.230453e-17
2.442053e-17
1.684403e-18
9.789970e-20
1.736702e-19
7.345650e-20
3.883854e-20
1.306257e-20
6.484046e-21
2.706945e-21
-8.598555e-22
1.000000e+00
1.000000e+00
1.000000e+00
1.000000e+00
1.000000e+00
1.000000e+00
1.000000e+00
1.000000e+00
1.000000e+00
1.000000e+00
9.999999e-01
9.999999e-01
9.999992e-01
9.999969e-01
9.999980e-01
9.999255e-01
9.999531e-01
9.969742e-01
9.968389e-01
9.755517e-01
9.436434e-01
8.871810e-01
7.906770e-01
7.010170e-01
5.218776e-01
4.173485e-01
2.502646e-01
1.743462e-01
9.759943e-02
5.029624e-02
2.347401e-02
9.955359e-03
3.815400e-03
1.294087e-03
3.738434e-04
8.548542e-05
3.134408e-05
1.995617e-05
1.445021e-05
9.754617e-06
5.196067e-06
1.897725e-06
5.494809e-07
1.563421e-07
9.080385e-08
7.509194e-08
4.955496e-08
2.485596e-08
1.161045e-08
5.539544e-09
2.566530e-09
1.195322e-09
5.609855e-10
2.766287e-10
9.886565e-11
1.402532e-11
3.266640e-12
1.735480e-12
6.282644e-13
4.779894e-13
2.382682e-13
1.841379e-13
1.205869e-13
4.829837e-14
8.895608e-15
5.837725e-16
7.336025e-16
2.395794e-16
9.059498e-17
6.798039e-17
5.817580e-17
3.546570e-17
1.609843e-17
7.195062e-18
3.265611e-18
1.452702e-18
6.420348e-19
2.847463e-19
1.289759e-19
5.616970e-20
1.000000e+00
1.000000e+00
1.000000e+00
1.000000e+00
1.000000e+00
1.000000e+00
1.000000e+00
1.000000e+00
1.000000e+00
1.000000e+00
1.000000e+00
9.999999e-01
9.999999e-01
9.999984e-01
9.999990e-01
9.999668e-01
9.999669e-01
9.986386e-01
9.986409e-01
9.925433e-01
9.749368e-01
9.412329e-01
8.823188e-01
7.836302e-01
6.993983e-01
5.243945e-01
4.205615e-01
2.545575e-01
1.789945e-01
1.014238e-01
5.354384e-02
2.548590e-02
1.100626e-02
4.340697e-03
1.569960e-03
5.151572e-04
1.526412e-04
4.710105e-05
1.936824e-05
1.167894e-05
7.802003e-06
4.276560e-06
2.398713e-06
1.182574e-06
4.371749e-07
8.230562e-08
4.624286e-08
2.333019e-08
1.014448e-08
4.640159e-09
2.561312e-09
9.751676e-10
4.595247e-10
2.703129e-10
2.181724e-10
1.349640e-10
6.349275e-11
2.972288e-11
1.444268e-11
5.564125e-12
9.686357e-13
1.765723e-13
1.147369e-13
9.437943e-14
6.041831e-14
2.933452e-14
1.340629e-14
6.706358e-15
2.258271e-15
2.388254e-16
2.735426e-17
2.638159e-17
1.313226e-17
5.464404e-18
2.701546e-18
1.246213e-18
6.588822e-19
1.569441e-19
1.047554e-19
5.663558e-20
1.000000e+00
1.000000e+00
1.000000e+00
1.000000e+00
1.000000e+00
1.000000e+00
1.000000e+00
1.000000e+00
1.000000e+00
1.000000e+00
1.000000e+00
1.000000e+00
1.000000e+00
9.999993e-01
9.999994e-01
9.999852e-01
1.000005e+00
9.993692e-01
9.993539e-01
9.979271e-01
9.904884e-01
9.730267e-01
9.372356e-01
8.796652e-01
7.714736e-01
6.917664e-01
5.232263e-01
4.221465e-01
2.585453e-01
1.839994e-01
1.048453e-01
5.702081e-02
2.784390e-02
1.221230e-02
4.836360e-03
1.745284e-03
5.792575e-04
1.844314e-04
6.119617e-05
2.360806e-05
1.223696e-05
7.604440e-06
3.598762e-06
1.710807e-06
1.172084e-06
6.963199e-07
3.360550e-07
1.681137e-07
8.448507e-08
4.238059e-08
2.079880e-08
1.067572e-08
4.291227e-09
9.327636e-10
1.723936e-10
1.318003e-10
4.835349e-11
2.311751e-11
1.374592e-11
1.128893e-11
7.404400e-12
2.994288e-12
5.773268e-13
9.926090e-14
4.741587e-14
1.831896e-14
1.294456e-14
6.667148e-15
5.316441e-15
3.193336e-15
1.474530e-15
6.750922e-16
3.047668e-16
1.389443e-16
6.412648e-17
2.925575e-17
1.352915e-17
6.273685e-18
2.027422e-18
2.918627e-19
1.000000e+00
1.000000e+00
1.000000e+00
1.000000e+00
1.000000e+00
1.000000e+00
1.000000e+00
1.000000e+00
1.000000e+00
1.000000e+00
1.000000e+00
1.000000e+00
1.000000e+00
9.999997e-01
9.999997e-01
9.999934e-01
9.999952e-01
9.997662e-01
9.995531e-01
9.994405e-01
9.969385e-01
9.892089e-01
9.704129e-01
9.337634e-01
8.782509e-01
7.661572e-01
6.868778e-01
5.219356e-01
4.232515e-01
2.619449e-01
1.899437e-01
1.067843e-01
5.993181e-02
3.036753e-02
1.380184e-02
5.618226e-03
2.051689e-03
6.813589e-04
2.154298e-04
7.170950e-05
2.672868e-05
1.310872e-05
9.387248e-06
4.184918e-06
1.249037e-06
6.335054e-07
3.066548e-07
1.668269e-07
8.690426e-08
4.089148e-08
1.981546e-08
1.071201e-08
8.573210e-09
5.450837e-09
2.719667e-09
1.286812e-09
6.339762e-10
2.580174e-10
5.061888e-11
9.948970e-12
6.694194e-12
5.884851e-12
3.756105e-12
1.865672e-12
8.522870e-13
4.085187e-13
1.411323e-13
1.893180e-14
4.179074e-15
2.758757e-15
1.505512e-15
4.429568e-16
2.118542e-16
1.168315e-16
6.574941e-17
1.449861e-17
9.045745e-18
6.094650e-18
5.316337e-18
2.696160e-18
1.000000e+00