# vtk DataFile Version 3.0
MUSCL
ASCII
DATASET STRUCTURED_POINTS
DIMENSIONS 80 80 1
ORIGIN 0 0 0
SPACING 0.0125 0.0125 1
POINT_DATA 6400
SCALARS Temperature double 1
LOOKUP_TABLE default
0.000000e+00
-6.740010e-01
-1.939402e-01
-2.456265e-02
-3.508882e-04
1.043696e-05
1.230754e-06
-1.115649e-07
-2.830262e-07
-1.245179e-07
-4.256360e-08
-1.667185e-08
-7.098670e-09
-3.044359e-09
-1.281707e-09
-6.316076e-11
1.863219e-11
4.723677e-12
1.283761e-12
3.590894e-13
1.065705e-13
2.843428e-14
5.926252e-15
1.351934e-15
1.440152e-15
1.514617e-15
1.120728e-15
5.007519e-16
2.198288e-16
1.024801e-16
5.788962e-17
3.101601e-17
1.442482e-17
6.341191e-18
2.729183e-18
1.146215e-18
4.646730e-19
1.754139e-19
6.095247e-20
1.117023e-20
1.468442e-22
-4.975009e-23
-2.871548e-23
-1.316330e-23
-5.264378e-24
-1.818478e-24
-5.696098e-25
-1.699049e-25
-5.076547e-26
-1.595450e-26
-5.365057e-27
-1.878998e-27
-6.580666e-28
-2.238731e-28
-7.510476e-29
-2.266502e-29
-4.537635e-31
1.999622e-31
4.843845e-32
1.251084e-32
4.200579e-33
1.583376e-33
7.595414e-34
3.901995e-34
1.676579e-34
5.378793e-35
1.337900e-35
2.704187e-36
4.628621e-37
7.121404e-38
1.431649e-38
6.031167e-39
3.427824e-39
4.334574e-40
4.022502e-40
4.122034e-40
2.439730e-40
1.287173e-40
6.612185e-41
2.770159e-41
1.325999e+00
6.740010e-01
1.939402e-01
2.456265e-02
3.508882e-04
-1.043696e-05
-1.230754e-06
1.115649e-07
2.830262e-07
1.245179e-07
4.256360e-08
1.667185e-08
7.098670e-09
3.044359e-09
1.281707e-09
6.316076e-11
-1.863219e-11
-4.723677e-12
-1.283761e-12
-3.590894e-13
-1.065705e-13
-2.843428e-14
-5.926252e-15
-1.351934e-15
-1.440152e-15
-1.514617e-15
-1.120728e-15
-5.007519e-16
-2.198288e-16
-1.024801e-16
-5.788962e-17
-3.101601e-17
-1.442482e-17
-6.341191e-18
-2.729183e-18
-1.146215e-18
-4.646730e-19
-1.754139e-19
-6.095247e-20
-1.117023e-20
-1.468442e-22
4.975009e-23
2.871548e-23
1.316330e-23
5.264378e-24
1.818478e-24
5.696098e-25
1.699049e-25
5.076547e-26
1.595450e-26
5.365057e-27
1.878998e-27
6.580666e-28
2.238731e-28
7.510476e-29
2.266502e-29
4.537635e-31
-1.999622e-31
-4.843845e-32
-1.251084e-32
-4.200579e-33
-1.583376e-33
-7.595414e-34
-3.901995e-34
-1.676579e-34
-5.378793e-35
-1.337900e-35
-2.704187e-36
-4.628621e-37
-7.121404e-38
-1.431649e-38
-6.031167e-39
-3.427824e-39
-4.334574e-40
-4.022502e-40
-4.122034e-40
-2.439730e-40
-1.287173e-40
-6.612185e-41
-2.770159e-41
1.041935e+00
9.580653e-01
5.984961e-01
2.397886e-01
5.881517e-02
3.789614e-03
-2.391577e-06
-2.988860e-05
-2.087583e-05
-9.318471e-06
-4.131914e-06
-1.885341e-06
-8.296168e-07
-2.290890e-07
-6.020568e-09
2.466620e-09
1.142725e-09
3.103973e-10
1.974344e-11
-5.269190e-14
3.325616e-13
3.224849e-13
1.135922e-13
2.757420e-14
3.341991e-15
-8.240527e-16
-1.104126e-15
-8.567001e-16
-5.680516e-16
-3.142245e-16
-1.277494e-16
-4.647734e-17
-1.668867e-17
-6.405141e-18
-2.635531e-18
-1.086044e-18
-4.145299e-19
-1.768362e-19
-6.255343e-20
-2.990941e-20
-1.904705e-20
-9.480578e-21
-4.091283e-21
-1.562998e-21
-5.356092e-22
-1.780067e-22
-5.858199e-23
-1.932924e-23
-6.448732e-24
-2.183511e-24
-7.487407e-25
-2.578606e-25
-8.846428e-26
-3.311806e-26
-7.784277e-27
-1.967711e-28
3.173469e-29
1.484796e-29
4.085775e-30
1.336962e-30
4.834730e-31
1.925698e-31
8.311374e-32
3.068586e-32
8.886341e-33
2.776885e-33
6.276425e-34
1.217157e-34
2.241956e-35
4.683610e-36
1.522671e-36
4.737158e-37
6.521146e-38
-1.126736e-40
-3.625101e-39
2.825329e-38
2.806342e-38
1.575788e-38
8.200947e-39
3.423994e-39
9.998918e-01
1.000108e+00
8.872316e-01
5.936195e-01
2.706906e-01
8.386483e-02
1.616571e-02
1.294085e-03
4.844408e-04
2.073459e-04
7.586377e-05
9.967052e-06
-7.199349e-07
-7.693153e-07
-4.605608e-07
-1.672941e-07
-2.050840e-08
-4.310191e-10
3.286418e-10
4.442379e-11
-1.300506e-11
-1.184507e-12
-5.127263e-13
-2.708836e-13
-1.442434e-13
-8.028042e-14
-2.262485e-14
-9.886164e-16
-2.414316e-16
-5.267487e-17
-4.558668e-17
-5.494819e-17
-4.629555e-17
-2.617632e-17
-1.321967e-17
-6.291812e-18
-2.885773e-18
-1.083083e-18
-2.502787e-19
-2.172192e-20
-1.887838e-20
-9.158377e-21
-3.795592e-21
-1.873531e-21
-5.382399e-22
-1.322436e-22
-2.662132e-23
-2.644101e-24
9.258582e-25
6.709144e-25
3.103360e-25
9.298244e-26
-4.294000e-26
-3.487940e-26
-2.185163e-26
-1.061230e-26
-3.509581e-27
-1.147192e-27
-3.716223e-28
-1.214545e-28
-4.279318e-29
-1.226240e-29
-2.118372e-30
-1.773939e-32
3.254048e-32
-2.018662e-32
-1.114576e-32
-2.901580e-33
-7.213173e-34
-1.775942e-34
-1.923912e-35
1.257974e-36
8.391129e-37
6.115303e-37
4.082977e-37
-1.447655e-36
-1.876228e-36
-1.294833e-36
-6.499999e-37
-3.227576e-37
9.999120e-01
1.000088e+00
9.864181e-01
8.524267e-01
5.808074e-01
2.960595e-01
9.886222e-02
2.187345e-02
6.163859e-04
1.411958e-04
1.372420e-04
9.323834e-05
4.246006e-05
7.635431e-06
-4.530612e-07
-3.456531e-07
-2.130026e-07
-7.017588e-08
-1.571248e-10
5.444371e-10
3.635361e-10
1.518839e-10
6.809721e-11
3.262385e-11
1.302667e-11
1.878734e-12
-9.505103e-14
-5.797512e-14
-2.590309e-14
-7.142541e-15
-1.491458e-16
2.167867e-16
5.940180e-16
5.763610e-16
2.359643e-16
3.766632e-17
-4.202443e-18
-2.515355e-18
-1.429662e-18
-6.466507e-19
-2.442063e-19
-8.304975e-20
-2.488094e-20
-6.005371e-21
-1.119829e-21
-1.591975e-22
-1.475139e-22
-6.421287e-23
-1.375425e-23
-4.446860e-24
2.128704e-25
2.417412e-25
1.972127e-25
9.581762e-26
4.312942e-26
1.997855e-26
1.025155e-26
3.754193e-27
1.505748e-27
1.978567e-28
-5.800545e-29
-3.211781e-29
-1.690678e-29
-7.696695e-30
-2.077544e-30
-1.069173e-32
2.750412e-32
2.360191e-32
3.769139e-33
-3.999711e-34
-2.315203e-34
-1.351518e-34
-5.002173e-35
-1.474162e-35
-2.664971e-36
3.054579e-35
6.351230e-35
5.669717e-35
2.930739e-35
1.391049e-35
9.999737e-01
1.000026e+00
9.998759e-01
9.650291e-01
8.294841e-01
5.646189e-01
3.366285e-01
1.267084e-01
3.475368e-02
2.638239e-03
-1.007604e-04
7.154082e-05
6.430728e-05
4.488100e-05
1.941218e-05
3.131235e-06
-2.720969e-07
-1.861130e-07
-1.126470e-07
-4.851231e-08
-2.074858e-08
-9.066392e-09
-3.262694e-09
-1.829691e-10
2.697188e-11
1.627911e-11
8.809025e-12
2.324585e-12
1.420651e-14
-1.104013e-14
-1.062306e-14
-4.486446e-15
-8.319913e-16
4.239698e-16
5.232778e-16
4.092395e-16
2.065175e-16
9.246483e-17
3.945314e-17
1.618049e-17
6.366634e-18
2.408234e-18
8.806046e-19
3.133001e-19
1.093001e-19
3.836712e-20
1.307572e-20
2.352668e-21
-9.017952e-24
-2.764867e-23
-9.949180e-24
-7.308919e-24
-4.658396e-24
-3.164005e-24
-2.118607e-24
-9.301328e-25
-1.246995e-25
-1.741958e-28
4.902001e-27
2.790685e-27
1.381437e-27
5.077999e-28
1.553629e-28
6.731334e-31
-3.924464e-30
-4.236032e-30
-1.335527e-30
5.958208e-32
3.086192e-32
2.545164e-32
1.456111e-32
4.317872e-33
-5.230518e-35
-7.010192e-35
-6.571080e-35
-1.429848e-34
-5.159551e-34
-4.060899e-34
3.203416e-35
2.173481e-35
9.999967e-01
1.000003e+00
1.000043e+00
9.983883e-01
9.484329e-01
8.111298e-01
5.427065e-01
3.576434e-01
1.479090e-01
5.012577e-02
9.828222e-03
2.468170e-04
4.694596e-05
4.066346e-05
3.443379e-05
2.156621e-05
1.059608e-05
4.554402e-06
1.991963e-06
7.987851e-07
1.498093e-07
-5.107012e-09
-6.732593e-09
-4.569966e-09
-1.205639e-09
2.521678e-11
9.935333e-12
7.858184e-12
4.388178e-12
1.935215e-12
8.637124e-13
4.065007e-13
1.312636e-13
2.881845e-15
-2.462566e-15
-6.352609e-16
2.197369e-17
7.554658e-17
2.910745e-17
2.168796e-18
-2.162088e-18
-1.550852e-18
-8.403428e-19
-3.840383e-19
-1.137130e-19
6.885668e-21
1.578505e-20
1.205531e-20
5.623776e-21
2.085475e-21
7.103188e-22
2.334796e-22
6.716422e-23
1.394610e-23
5.868006e-25
-1.602225e-24
-1.546863e-24
-8.594481e-25
-3.735912e-25
-1.259327e-25
-2.247924e-26
2.028198e-28
4.353123e-28
2.385944e-28
5.349409e-29
-3.789873e-30
-4.937142e-30
-3.966513e-30
-2.202675e-30
-1.029084e-30
-4.789832e-32
2.046796e-32
9.130902e-33
6.455959e-33
3.651020e-33
1.149220e-33
-3.258045e-34
-9.605834e-34
-9.426290e-34
-4.864556e-34
9.999996e-01
1.000000e+00
1.000010e+00
1.000047e+00
9.920170e-01
9.348713e-01
7.949569e-01
5.167917e-01
3.729165e-01
1.555913e-01
5.846809e-02
1.610971e-02
2.123690e-03
3.009766e-05
2.863834e-05
2.154157e-05
1.085134e-05
4.276529e-06
1.980713e-06
1.245734e-06
8.865742e-07
3.662834e-07
5.029715e-08
-5.701925e-09
-4.342530e-09
-2.494529e-09
-1.169354e-09
-5.145120e-10
-2.263261e-10
-1.023916e-10
-3.871372e-11
-2.653976e-12
4.219452e-13
2.405157e-13
1.154038e-13
4.964178e-14
2.071901e-14
8.468805e-15
3.420018e-15
1.373940e-15
5.508206e-16
2.226822e-16
8.521213e-17
1.952361e-17
-2.781807e-20
-6.637271e-20
-3.591360e-20
-8.210209e-21
-2.039388e-23
4.833005e-22
7.648402e-23
-1.864341e-22
-2.257229e-22
-1.232859e-22
2.863422e-25
-3.865846e-25
-7.820797e-25
-6.418777e-25
-5.331169e-25
-3.986440e-25
-2.336521e-25
-1.112778e-25
-4.471929e-26
-8.392766e-27
1.235979e-28
7.691317e-29
4.439890e-29
1.052345e-29
-1.522577e-31
-1.052918e-30
-1.110551e-30
-8.147494e-31
-4.167144e-31
-2.201794e-31
-1.220470e-31
-5.204078e-32
-1.360802e-33
-5.257076e-34
-8.878089e-34
-4.150315e-34
9.999993e-01
1.000001e+00
1.000001e+00
1.000029e+00
9.998897e-01
9.849580e-01
9.218434e-01
7.795029e-01
5.212282e-01
3.784365e-01
1.650578e-01
6.670953e-02
2.046370e-02
4.230164e-03
4.171154e-04
9.116965e-05
4.842412e-05
2.552641e-05
9.109284e-06
1.852724e-06
8.468369e-07
7.073283e-07
4.455255e-07
2.113448e-07
9.033592e-08
3.746219e-08
1.517531e-08
6.311302e-09
1.756850e-09
-5.281558e-11
-5.940835e-11
-4.742874e-11
-2.119071e-11
-9.087329e-12
-3.871130e-12
-1.643959e-12
-6.980965e-13
-2.970299e-13
-1.264997e-13
-5.290313e-14
-1.435212e-14
-1.380753e-16
1.261707e-16
8.067264e-17
4.178681e-17
1.180178e-17
3.163595e-18
1.331139e-18
5.715375e-19
2.450447e-19
9.428981e-20
2.101941e-20
-1.980228e-22
-2.218882e-22
-2.353382e-22
-1.524287e-22
-7.701490e-23
-2.036687e-23
-1.661918e-25
-1.347986e-27
-7.107975e-27
-6.391923e-26
-5.547272e-26
-3.770885e-26
-1.980865e-26
-8.313671e-27
-1.326959e-27
7.138121e-29
1.694944e-29
4.537922e-30
1.063734e-30
6.060466e-32
-3.227024e-31
-1.238840e-31
-1.251218e-31
-1.135952e-31
-9.110477e-32
-5.096844e-32
-2.927594e-32
-1.500131e-32
9.999997e-01
1.000000e+00
1.000000e+00
1.000011e+00
1.000017e+00
9.989354e-01
9.787099e-01
9.080130e-01
7.698174e-01
5.221557e-01
3.810743e-01
1.772024e-01
7.565472e-02
2.543796e-02
5.972721e-03
4.817663e-04
4.645677e-05
3.245043e-05
2.537289e-05
1.359635e-05
3.845474e-06
7.094044e-07
4.089619e-07
2.470917e-07
9.477561e-08
3.462025e-08
1.367117e-08
6.416292e-09
4.839910e-09
2.664064e-09
1.076426e-09
4.221486e-10
1.672655e-10
6.774759e-11
2.824697e-11
1.193950e-11
5.357949e-12
1.495547e-12
-9.478424e-14
-7.357707e-14
-5.020805e-14
-2.424179e-14
-4.189743e-15
1.133823e-16
5.347648e-17
3.109306e-17
9.659484e-18
1.108114e-18
5.601905e-19
1.812233e-19
9.467708e-20
9.211057e-20
4.962009e-20
1.910666e-20
6.753223e-21
9.201952e-22
-7.317241e-23
-8.322030e-23
-5.311788e-23
-2.549297e-23
-1.001366e-23
-2.627889e-24
-1.180059e-25
3.173440e-26
5.004360e-27
-6.642143e-27
-8.182733e-27
-5.130573e-27
-2.255454e-27
-9.732847e-28
-4.079623e-28
-1.726705e-28
-6.246939e-29
-1.267995e-29
-2.433202e-31
-1.020372e-31
6.920010e-32
8.842411e-33
7.003446e-33
-1.261354e-32
9.999999e-01
1.000000e+00
1.000000e+00
1.000002e+00
1.000016e+00
1.000020e+00
9.972781e-01
9.710271e-01
8.969335e-01
7.615558e-01
5.236505e-01
3.741403e-01
1.874868e-01
8.585424e-02
3.204210e-02
8.933268e-03
1.228317e-03
2.603935e-05
2.416156e-05
2.205395e-05
1.599770e-05
7.021229e-06
1.925829e-06
5.965215e-07
4.012437e-07
2.262094e-07
1.005169e-07
2.731299e-08
4.489315e-09
2.628262e-09
1.093020e-09
3.871878e-10
1.672093e-10
3.413817e-11
1.335478e-11
9.457569e-12
4.976933e-12
4.323169e-12
2.426921e-12
4.842917e-13
-5.488996e-14
-4.052419e-14
-2.795082e-14
-1.115482e-14
-1.530177e-15
1.122485e-16
3.824358e-17
2.100348e-17
9.415185e-18
3.914409e-18
6.311399e-19
1.016588e-19
2.961169e-20
1.642520e-20
1.175710e-20
7.205008e-21
3.647772e-21
1.288098e-21
2.055972e-22
-3.130346e-23
-2.051065e-23
-1.263017e-23
-6.248610e-24
-2.690390e-24
-7.847782e-25
-2.654174e-26
1.045413e-26
-3.824379e-27
2.400809e-28
-5.164604e-28
-1.552660e-28
-1.350451e-28
-1.168452e-28
-7.667361e-29
-3.986051e-29
-1.779977e-29
-8.193296e-30
-3.681886e-30
-1.709811e-30
-8.744096e-31
1.000000e+00
1.000000e+00
1.000000e+00
9.999998e-01
1.000007e+00
1.000009e+00
9.999789e-01
9.940508e-01
9.638350e-01
8.861307e-01
7.588600e-01
5.119373e-01
3.893653e-01
1.921694e-01
9.245249e-02
3.723421e-02
1.169312e-02
2.285354e-03
5.757849e-05
1.242760e-05
1.754127e-05
1.401078e-05
7.702470e-06
2.333793e-06
3.730200e-07
2.104393e-07
1.820905e-07
1.194803e-07
6.076367e-08
2.877440e-08
1.342297e-08
5.982068e-09
2.741673e-09
1.286499e-09
6.095559e-10
2.009117e-10
2.414430e-11
3.725339e-12
3.312678e-12
2.625253e-12
1.227551e-12
2.162063e-13
-2.321846e-14
-2.302847e-14
-1.473476e-14
-7.193321e-15
-3.136049e-15
-8.337740e-16
1.289231e-17
5.172724e-18
4.189292e-18
2.443978e-18
9.519074e-19
2.078288e-19
5.806209e-21
6.277496e-21
3.740100e-21
2.567189e-21
1.577016e-21
8.177108e-22
3.353019e-22
1.108747e-22
1.961655e-23
-2.838932e-24
-2.023122e-24
-1.138988e-24
-5.239472e-25
-2.501408e-25
-1.189615e-25
-5.599737e-26
-1.915120e-26
-2.708273e-28
-5.698112e-29
6.643880e-30
-7.002993e-30
-1.485645e-29
-5.537547e-30
-2.485078e-30
-1.466554e-30
-9.147214e-31
1.000000e+00
1.000000e+00
1.000000e+00
1.000000e+00
1.000002e+00
1.000006e+00
1.000006e+00
9.997232e-01
9.914518e-01
9.548372e-01
8.817441e-01
7.454393e-01
5.159703e-01
3.938670e-01
1.987102e-01
9.895052e-02
4.200741e-02
1.453780e-02
3.627499e-03
3.487162e-04
2.033785e-05
1.724758e-05
1.362697e-05
9.990888e-06
4.245761e-06
9.106704e-07
1.921163e-07
9.755393e-08
5.656011e-08
2.118068e-08
1.323837e-08
5.048157e-09
2.373198e-09
1.011635e-09
5.928608e-10
4.989344e-10
2.848801e-10
7.276223e-11
4.239039e-12
1.899352e-12
1.927217e-12
1.454080e-12
7.374105e-13
3.240714e-13
1.042192e-13
1.875200e-15
-3.430663e-15
-2.896136e-15
-1.579570e-15
-7.085375e-16
-2.509452e-16
-3.464536e-17
4.750589e-19
1.250125e-18
6.400718e-19
2.383202e-19
2.035430e-20
1.574478e-21
7.497756e-22
6.285048e-22
4.570058e-22
2.761292e-22
1.453993e-22
6.175022e-23
2.023107e-23
6.734391e-24
2.521524e-24
1.160882e-24
4.919245e-25
-2.086737e-26
-3.739682e-26
-2.923449e-26
-1.294102e-26
-5.958257e-27
-2.719751e-27
-1.226507e-27
-5.471884e-28
-2.436247e-28
-7.013500e-29
-1.245117e-30
1.000000e+00
1.000000e+00
1.000000e+00
1.000000e+00
1.000000e+00
1.000002e+00
1.000007e+00
9.999062e-01
9.998566e-01
9.863472e-01
9.508506e-01
8.715651e-01
7.384873e-01
5.161965e-01
3.972506e-01
2.052372e-01
1.052282e-01
4.640158e-02
1.745738e-02
5.020014e-03
6.008196e-04
6.599053e-06
7.046929e-06
9.592432e-06
8.399811e-06
5.438300e-06
2.701443e-06
1.236717e-06
5.752170e-07
2.817098e-07
1.310106e-07
6.169509e-08
2.951101e-08
1.158297e-08
2.309914e-09
4.981453e-10
4.102867e-10
3.140694e-10
1.443187e-10
2.973267e-11
1.814746e-12
8.968902e-13
4.140015e-13
3.081179e-13
2.439135e-13
1.477690e-13
6.648126e-14
2.841095e-14
7.665034e-15
-6.093349e-16
-5.264712e-16
-3.258184e-16
-1.656315e-16
-4.706826e-17
6.306496e-19
3.267097e-19
2.981888e-19
1.723110e-19
7.139853e-20
9.642058e-21
2.364974e-22
5.989059e-23
1.146044e-22
-2.776239e-24
-9.782560e-25
2.628247e-24
1.039005e-24
6.625424e-25
6.511215e-25
5.944867e-25
3.381448e-25
1.716685e-25
8.271782e-26
3.732702e-26
1.616262e-26
6.432980e-27
4.219777e-28
-2.741095e-28
-2.127625e-28
-1.137485e-28
1.000000e+00
1.000000e+00
1.000000e+00
1.000000e+00
1.000000e+00
1.000000e+00
1.000004e+00
9.999616e-01
1.000015e+00
9.976907e-01
9.838576e-01
9.447121e-01
8.635057e-01
7.326666e-01
5.158000e-01
4.002449e-01
2.116113e-01
1.117249e-01
5.056508e-02
2.041080e-02
7.041137e-03
1.705533e-03
2.188759e-04
1.724200e-05
7.886886e-06
4.103354e-06
2.107878e-06
-9.205975e-08
1.259935e-07
1.917744e-07
4.675494e-08
4.646378e-08
2.746907e-08
2.355348e-08
1.456080e-08
4.810710e-09
4.975133e-10
3.064321e-10
2.444710e-10
1.657964e-10
8.208113e-11
3.876369e-11
1.427546e-11
1.869033e-12
-1.419297e-14
1.018253e-13
6.803990e-14
2.900424e-14
2.186493e-14
1.234572e-14
4.328256e-15
5.164531e-16
-1.548503e-16
-1.395133e-16
-8.055701e-17
-3.570760e-17
-9.996780e-18
1.199615e-19
8.636279e-20
6.998254e-20
3.706342e-20
1.820295e-20
8.198562e-21
3.532028e-21
1.521906e-21
5.577893e-22
1.561649e-22
5.307222e-24
-4.986187e-24
-2.129275e-25
-2.879057e-26
-3.231205e-26
3.099807e-26
8.818858e-27
8.793909e-27
7.404427e-27
5.875461e-27
2.937412e-27
8.218865e-28
6.983348e-29
1.000000e+00
1.000000e+00
1.000000e+00
1.000000e+00
1.000000e+00
1.000000e+00
1.000002e+00
9.999844e-01
9.999957e-01
9.999555e-01
9.962163e-01
9.802190e-01
9.386876e-01
8.559280e-01
7.276857e-01
5.150247e-01
4.023001e-01
2.167232e-01
1.189753e-01
5.370545e-02
2.139577e-02
7.342322e-03
2.234439e-03
7.188705e-04
3.133503e-04
1.388603e-04
6.248021e-05
2.895215e-05
1.324068e-05
6.016196e-06
2.801255e-06
9.014076e-07
1.200422e-07
2.238199e-08
1.793160e-08
1.459392e-08
7.871261e-09
1.929410e-09
2.795533e-10
1.332236e-10
5.860012e-11
3.578349e-11
3.079302e-11
1.945581e-11
9.179544e-12
4.342735e-12
1.501904e-12
1.137862e-13
-9.924820e-15
1.042909e-14
7.656276e-15
4.797066e-15
2.385956e-15
8.221451e-16
5.886844e-17
-3.452223e-17
-3.078703e-17
-1.750346e-17
-7.453174e-18
-3.165421e-18
-1.343240e-18
-5.697441e-19
-2.483429e-19
-8.306789e-20
-7.353248e-21
1.010939e-21
6.767538e-22
3.593977e-22
1.479486e-22
6.186052e-23
2.764379e-23
1.307648e-23
5.556493e-24
1.176818e-24
5.260866e-26
1.764292e-27
2.556725e-27
2.998876e-27
2.264649e-27
1.092326e-27
1.000000e+00
1.000000e+00
1.000000e+00
1.000000e+00
1.000000e+00
1.000000e+00
1.000001e+00
9.999937e-01
9.999929e-01
1.000003e+00
9.996593e-01
9.947640e-01
9.764108e-01
9.334839e-01
8.476349e-01
7.250279e-01
5.158483e-01
4.044478e-01
2.191951e-01
1.311451e-01
6.151136e-02
2.463608e-02
8.083092e-03
1.887903e-03
3.551268e-04
1.304032e-04
5.777684e-05
2.487233e-05
1.354815e-05
5.349230e-06
2.868054e-06
2.288649e-06
1.251905e-06
3.193804e-07
1.991343e-08
1.243202e-08
1.106551e-08
8.550156e-09
4.342783e-09
2.101360e-09
8.175202e-10
1.580986e-10
2.308402e-11
1.484009e-11
6.570568e-12
4.264659e-12
3.565034e-12
2.191066e-12
9.249269e-13
2.069486e-13
7.861665e-15
2.563940e-15
1.692928e-15
1.338824e-15
8.633271e-16
4.108244e-16
1.458266e-16
4.713300e-17
1.373321e-17
3.188142e-18
2.486011e-19
-3.412331e-19
-2.520453e-19
-1.885629e-19
-1.179467e-19
-5.646491e-20
-2.424244e-20
-1.009245e-20
-4.170254e-21
-1.788917e-21
-6.574175e-22
-7.380678e-23
7.174445e-24
5.942827e-24
3.336367e-24
9.303974e-25
2.670842e-26
-2.063783e-27
-2.161335e-27
-6.837896e-28
1.000000e+00
1.000000e+00
1.000000e+00
1.000000e+00
1.000000e+00
1.000000e+00
1.000000e+00
9.999985e-01
9.999944e-01
9.999956e-01
9.999933e-01
9.992506e-01
9.929758e-01
9.724052e-01
9.302188e-01
8.319257e-01
7.228809e-01
5.194980e-01
4.070943e-01
2.222698e-01
1.368198e-01
6.858850e-02
3.015973e-02
1.136337e-02
3.489486e-03
9.584063e-04
4.592504e-04
2.292334e-04
1.178861e-04
4.154770e-05
8.045846e-06
2.185453e-06
1.868381e-06
1.361532e-06
6.286661e-07
1.353638e-07
6.826352e-09
8.441375e-09
3.198491e-09
2.111292e-09
1.640046e-09
1.067527e-09
5.371301e-10
2.658220e-10
9.451604e-11
1.181035e-11
3.786909e-12
2.052190e-12
1.474806e-12
9.725195e-13
4.925122e-13
1.738699e-13
2.379221e-14
1.236720e-15
6.180581e-16
4.214276e-16
-1.233407e-16
-8.611911e-17
-4.572183e-17
-9.589631e-18
-1.625454e-18
-1.063896e-18
-4.814188e-19
-1.949043e-19
-9.686788e-20
-5.113169e-20
-2.402682e-20
-9.417083e-21
-4.048931e-21
-1.564893e-21
-1.165938e-21
-7.902929e-22
-3.366615e-22
-5.427000e-23
3.603801e-24
3.109123e-24
1.810280e-24
7.931496e-25
3.208120e-25
1.113835e-25
1.000000e+00
1.000000e+00
1.000000e+00
1.000000e+00
1.000000e+00
1.000000e+00
1.000000e+00
1.000000e+00
9.999972e-01
9.999960e-01
9.999961e-01
9.999419e-01
9.989920e-01
9.902001e-01
9.711779e-01
9.210222e-01
8.231889e-01
7.195879e-01
5.218480e-01
4.078439e-01
2.281144e-01
1.366081e-01
6.950518e-02
3.124912e-02
1.174242e-02
3.389318e-03
5.671665e-04
2.354076e-04
1.224928e-04
9.884887e-05
5.728709e-05
1.636179e-05
1.722172e-06
1.311071e-06
1.017282e-06
6.669420e-07
3.349075e-07
1.542825e-07
5.998001e-08
1.073067e-08
1.625927e-09
4.848286e-10
3.594424e-10
2.648603e-10
2.156595e-10
1.350923e-10
6.390970e-11
2.023187e-11
1.741930e-12
7.251647e-13
4.837290e-13
3.602468e-13
2.263032e-13
1.033848e-13
4.559703e-14
2.068624e-14
8.672356e-15
3.698927e-15
1.573029e-15
6.975643e-16
2.163804e-16
9.538852e-18
-1.070860e-18
-1.320992e-18
-8.036250e-19
-4.438418e-19
-2.254790e-19
-1.083827e-19
-5.060311e-20
-1.567572e-20
-1.338249e-21
-6.105895e-22
-5.878190e-22
-4.002425e-22
-2.038635e-22
-9.296855e-23
-3.420890e-23
-4.611529e-24
2.416251e-25
2.489493e-25
1.000000e+00
1.000000e+00
1.000000e+00
1.000000e+00
1.000000e+00
1.000000e+00
1.000000e+00
1.000000e+00
9.999993e-01
9.999973e-01
9.999973e-01
9.999738e-01
9.999714e-01
9.975182e-01
9.896974e-01
9.672023e-01
9.135212e-01
8.160677e-01
7.166567e-01
5.215159e-01
4.107806e-01
2.332024e-01
1.463530e-01
7.662114e-02
3.644135e-02
1.522673e-02
5.272918e-03
1.304019e-03
2.843961e-04
1.021324e-04
8.103212e-05
6.166938e-05
2.981218e-05
7.921587e-06
9.406098e-07
6.158722e-07
3.029066e-07
1.509902e-07
1.188345e-07
7.613320e-08
3.664678e-08
1.781426e-08
6.501118e-09
8.955970e-10
1.703193e-10
1.353197e-10
8.375560e-11
5.924361e-11
3.649832e-11
1.359860e-11
2.389243e-12
3.595122e-13
2.270606e-13
9.805551e-14
2.160845e-14
1.291090e-14
7.764225e-15
1.016864e-15
1.276006e-15
7.017948e-16
5.406081e-16
3.141257e-16
1.379704e-16
5.884029e-17
2.471711e-17
1.085587e-17
3.274535e-18
7.917229e-20
-6.145275e-20
-4.614847e-20
-2.596137e-20
-6.936262e-21
-7.200709e-22
-1.854015e-22
-1.692604e-22
-9.168061e-23
-6.635491e-23
-4.193337e-23
-2.163034e-23
-8.218724e-24
1.000000e+00
1.000000e+00
1.000000e+00
1.000000e+00
1.000000e+00
1.000000e+00
1.000000e+00
1.000000e+00
1.000000e+00
9.999986e-01
9.999986e-01
9.999879e-01
9.999889e-01
9.996383e-01
9.969723e-01
9.879888e-01
9.630044e-01
9.062479e-01
8.112538e-01
7.119668e-01
5.210684e-01
4.143663e-01
2.385705e-01
1.469153e-01
7.672835e-02
3.696051e-02
1.605378e-02
5.916284e-03
1.810827e-03
4.347280e-04
9.183683e-05
6.181421e-05
4.666002e-05
3.082646e-05
1.476738e-05
5.715382e-06
2.547421e-06
7.270636e-07
1.133134e-07
7.624361e-08
3.615327e-08
1.689229e-08
1.419263e-08
8.690521e-09
4.190567e-09
1.477486e-09
1.466164e-10
4.424712e-11
3.531833e-11
2.778306e-11
1.721936e-11
8.176136e-12
3.741084e-12
1.662605e-12
7.738215e-13
3.505476e-13
1.564220e-13
7.528871e-14
2.427920e-14
2.541995e-15
4.429843e-16
3.076138e-16
1.054353e-16
-2.484592e-19
5.579537e-18
1.003775e-17
8.430358e-18
4.774053e-18
1.218518e-18
-4.642975e-20
-3.291236e-20
-2.499918e-20
-1.297610e-20
-6.101312e-21
-2.643352e-21
-7.385561e-22
-7.333881e-23
-4.051905e-23
-2.222306e-23
-6.930156e-24
1.000000e+00
1.000000e+00
1.000000e+00
1.000000e+00
1.000000e+00
1.000000e+00
1.000000e+00
1.000000e+00
1.000000e+00
9.999994e-01
9.999995e-01
9.999946e-01
9.999918e-01
9.999853e-01
9.993749e-01
9.962381e-01
9.860161e-01
9.586292e-01
8.993115e-01
8.088090e-01
7.066925e-01
5.196548e-01
4.154490e-01
2.429440e-01
1.591059e-01
8.339931e-02
4.028923e-02
1.765885e-02
6.900175e-03
2.338165e-03
6.677917e-04
1.667079e-04
6.006433e-05
3.757016e-05
2.362795e-05
1.110733e-05
4.350352e-06
2.581943e-06
1.506784e-06
7.593953e-07
2.990091e-07
7.354380e-08
1.262185e-08
6.551696e-09
4.387063e-09
3.569914e-09
2.215319e-09
8.455606e-10
1.468914e-10
2.042013e-11
1.422588e-11
5.965780e-12
3.190073e-12
1.547905e-12
7.632498e-13
2.903448e-13
1.568923e-13
7.719017e-14
5.837283e-14
3.504830e-14
1.573270e-14
7.062984e-15
3.255685e-15
1.528905e-15
4.940582e-16
5.713287e-17
9.336106e-18
5.995378e-18
4.684695e-18
2.541998e-18
1.125404e-18
5.027255e-19
1.473872e-19
-4.808512e-21
-4.204284e-21
-2.849331e-21
-1.570636e-21
-7.311587e-22
-3.707492e-22
-1.451715e-22
1.000000e+00
1.000000e+00
1.000000e+00
1.000000e+00
1.000000e+00
1.000000e+00
1.000000e+00
1.000000e+00
1.000000e+00
9.999998e-01
9.999998e-01
9.999984e-01
9.999942e-01
9.999951e-01
9.999407e-01
9.991277e-01
9.953467e-01
9.838037e-01
9.547085e-01
8.884988e-01
8.115130e-01
7.049046e-01
5.184654e-01
4.164982e-01
2.444506e-01
1.649082e-01
8.851440e-02
4.341889e-02
1.932962e-02
7.749844e-03
2.746505e-03
8.352069e-04
2.305047e-04
7.911660e-05
4.441367e-05
2.947152e-05
1.409271e-05
4.087230e-06
1.472522e-06
7.721508e-07
5.875538e-07
3.747299e-07
1.949274e-07
6.992119e-08
1.074477e-08
3.466080e-09
2.030518e-09
1.721639e-09
1.086318e-09
5.214534e-10
2.445482e-10
1.134863e-10
5.115068e-11
2.340886e-11
1.071260e-11
5.167316e-12
1.828605e-12
2.119016e-13
3.585775e-14
2.028909e-14
1.414202e-14
3.787835e-15
2.236796e-15
1.416121e-15
1.184215e-15
6.811304e-16
1.873749e-16
8.627449e-18
-8.449871e-20
1.720874e-18
1.099998e-18
5.190338e-19
4.050092e-19
2.349449e-19
1.010765e-19
4.268100e-20
1.770703e-20
7.221718e-21
2.895786e-21
1.044927e-21
1.000000e+00
1.000000e+00
1.000000e+00
1.000000e+00
1.000000e+00
1.000000e+00
1.000000e+00
1.000000e+00
1.000000e+00
9.999999e-01
9.999999e-01
9.999998e-01
9.999970e-01
9.999958e-01
9.999961e-01
9.998431e-01
9.990022e-01
9.937623e-01
9.846054e-01
9.402788e-01
8.937320e-01
7.989485e-01
7.032336e-01
5.214208e-01
4.170615e-01
2.478008e-01
1.704845e-01
9.366450e-02
4.706851e-02
2.144315e-02
8.839477e-03
3.242647e-03
1.029849e-03
2.811080e-04
7.935596e-05
4.148069e-05
3.112664e-05
2.039581e-05
9.561366e-06
3.233101e-06
6.483367e-07
3.470696e-07
1.922909e-07
1.563497e-07
9.848603e-08
4.067173e-08
8.921243e-09
1.257402e-09
8.445969e-10
4.083841e-10
2.064699e-10
1.067809e-10
3.988615e-11
1.854055e-11
7.842094e-12
5.188904e-12
4.225926e-12
2.589800e-12
1.199226e-12
5.475924e-13
2.514514e-13
1.188613e-13
4.101022e-14
6.242122e-15
9.629302e-16
9.068753e-16
6.791586e-16
3.523180e-16
1.572876e-16
7.289235e-17
2.338846e-17
1.544909e-18
7.030400e-20
1.893700e-19
7.814840e-20
1.078194e-20
1.338869e-20
5.156011e-21
-1.667507e-22
5.419627e-22
1.000000e+00
1.000000e+00
1.000000e+00
1.000000e+00
1.000000e+00
1.000000e+00
1.000000e+00
1.000000e+00
1.000000e+00
1.000000e+00
9.999999e-01
9.999999e-01
9.999991e-01
9.999969e-01
9.999975e-01
9.999302e-01
9.999706e-01
9.969454e-01
9.968309e-01
9.755256e-01
9.436040e-01
8.871373e-01
7.906474e-01
7.009981e-01
5.218734e-01
4.173615e-01
2.502998e-01
1.743861e-01
9.763346e-02
5.032307e-02
2.349783e-02
9.976274e-03
3.830657e-03
1.303010e-03
3.782325e-04
8.779394e-05
3.136673e-05
2.035290e-05
1.493660e-05
9.983439e-06
5.162847e-06
1.919880e-06
5.410040e-07
1.509481e-07
9.211499e-08
7.380043e-08
4.886746e-08
2.509600e-08
1.196450e-08
5.627563e-09
2.678943e-09
1.259055e-09
5.904987e-10
2.875102e-10
1.033378e-10
1.526897e-11
2.853938e-12
2.195521e-12
6.058723e-13
4.869074e-13
2.374405e-13
1.193651e-13
9.570001e-14
5.301334e-14
1.541003e-14
1.142406e-15
3.738847e-16
2.215644e-16
6.621615e-17
7.273850e-17
5.987567e-17
3.569894e-17
1.621656e-17
7.285277e-18
3.332773e-18
1.494765e-18
6.631524e-19
2.953186e-19
1.303370e-19
5.714329e-20
1.000000e+00
1.000000e+00
1.000000e+00
1.000000e+00
1.000000e+00
1.000000e+00
1.000000e+00
1.000000e+00
1.000000e+00
1.000000e+00
1.000000e+00
9.999999e-01
1.000000e+00
9.999984e-01
9.999995e-01
9.999683e-01
1.000016e+00
9.986296e-01
9.986518e-01
9.925631e-01
9.749311e-01
9.412005e-01
8.822851e-01
7.836173e-01
6.993989e-01
5.244138e-01
4.205991e-01
2.546034e-01
1.790341e-01
1.014551e-01
5.356895e-02
2.550646e-02
1.102152e-02
4.350496e-03
1.574977e-03
5.186070e-04
1.522345e-04
4.570595e-05
1.907573e-05
1.166878e-05
7.793891e-06
4.284969e-06
2.409100e-06
1.183876e-06
4.212927e-07
7.484632e-08
4.625378e-08
2.146144e-08
1.208282e-08
4.690794e-09
2.402411e-09
1.158039e-09
5.498790e-10
2.828154e-10
2.331879e-10
1.444432e-10
6.821126e-11
3.238978e-11
1.526056e-11
7.222693e-12
2.420890e-12
4.350841e-13
9.632328e-14
7.741980e-14
5.489285e-14
2.976659e-14
1.330315e-14
6.289958e-15
2.071838e-15
2.028858e-16
1.299726e-17
1.336931e-17
1.454477e-17
4.586353e-18
2.968581e-18
4.252287e-19
3.226973e-19
2.431881e-19
1.221093e-19
5.513946e-20
1.000000e+00
1.000000e+00
1.000000e+00
1.000000e+00
1.000000e+00
1.000000e+00
1.000000e+00
1.000000e+00
1.000000e+00
1.000000e+00
1.000000e+00
1.000000e+00
1.000000e+00
9.999993e-01
9.999996e-01
9.999854e-01
1.000006e+00
9.993769e-01
9.993797e-01
9.979667e-01
9.905173e-01
9.730542e-01
9.372523e-01
8.796765e-01
7.714862e-01
6.917908e-01
5.232689e-01
4.221984e-01
2.585916e-01
1.840334e-01
1.048703e-01
5.703909e-02
2.785644e-02
1.222076e-02
4.841551e-03
1.749396e-03
5.806634e-04
1.844040e-04
6.108072e-05
2.353997e-05
1.218110e-05
7.567989e-06
3.552254e-06
1.679592e-06
1.174135e-06
6.950819e-07
3.321078e-07
1.730752e-07
8.876518e-08
4.384838e-08
2.156776e-08
1.074870e-08
4.330274e-09
9.347849e-10
2.483696e-10
1.226168e-10
6.975319e-11
2.453829e-11
1.512478e-11
7.336390e-12
5.901852e-12
3.207614e-12
9.392026e-13
7.956239e-14
4.922513e-14
1.873156e-14
1.171723e-14
6.404369e-15
5.133585e-15
3.116908e-15
1.467654e-15
6.578988e-16
2.990054e-16
1.388694e-16
6.288866e-17
2.853801e-17
1.315063e-17
6.375444e-18
2.014805e-18
2.919228e-19
1.000000e+00
1.000000e+00
1.000000e+00
1.000000e+00
1.000000e+00
1.000000e+00
1.000000e+00
1.000000e+00
1.000000e+00
1.000000e+00
1.000000e+00
1.000000e+00
1.000000e+00
9.999997e-01
9.999998e-01
9.999933e-01
9.999952e-01
9.997683e-01
9.995510e-01
9.994515e-01
9.969750e-01
9.892568e-01
9.704534e-01
9.337918e-01
8.782714e-01
7.661837e-01
6.869177e-01
5.219893e-01
4.233066e-01
2.619871e-01
1.899723e-01
1.068020e-01
5.994236e-02
3.037425e-02
1.380705e-02
5.623049e-03
2.055547e-03
6.838403e-04
2.167908e-04
7.235340e-05
2.690660e-05
1.307400e-05
9.359212e-06
4.080045e-06
1.212130e-06
6.707624e-07
3.382064e-07
1.771165e-07
8.797826e-08
4.465543e-08
2.231329e-08
1.106510e-08
8.765375e-09
5.619177e-09
2.888121e-09
1.364967e-09
6.593943e-10
3.253606e-10
1.150450e-10
2.425260e-11
5.724057e-12
5.022701e-12
3.458399e-12
1.889297e-12
8.544076e-13
4.023332e-13
1.379731e-13
1.762543e-14
2.238644e-15
3.021406e-15
1.164730e-15
6.310558e-16
2.197145e-16
1.293695e-16
4.230191e-17
1.907546e-17
1.301209e-17
6.511574e-18
5.245601e-18
2.648445e-18
1.000000e+00
1.000000e+00
1.000000e+00
1.000000e+00
1.000000e+00
1.000000e+00
1.000000e+00
1.000000e+00
1.000000e+00
1.000000e+00
1.000000e+00