# vtk DataFile Version 3.0
MUSCL
ASCII
DATASET STRUCTURED_POINTS
DIMENSIONS 80 80 1
ORIGIN 0 0 0
SPACING 0.0125 0.0125 1
POINT_DATA 6400
SCALARS Temperature double 1
LOOKUP_TABLE default
0.000000e+00
-6.739997e-01
-1.939380e-01
-2.456433e-02
-3.497301e-04
-8.107276e-07
-1.298174e-06
-7.491544e-07
-2.551397e-07
-9.719513e-08
-4.706198e-08
-2.451483e-08
-1.201290e-08
-5.371124e-09
-2.335735e-09
-4.132495e-10
8.640355e-12
5.513597e-12
2.094158e-12
6.701434e-13
2.041473e-13
4.703080e-14
8.693846e-15
2.009569e-15
8.336379e-16
3.826973e-16
2.068025e-16
7.667363e-17
-1.262400e-18
-5.972606e-19
-7.247193e-19
-5.240267e-19
-1.616409e-19
4.369873e-22
2.925305e-21
1.362163e-21
8.646346e-22
6.839470e-21
1.397351e-20
1.323546e-20
2.883822e-21
-7.548539e-23
-2.682144e-23
-1.676107e-23
-9.289311e-24
-4.764995e-24
-2.239884e-24
-9.955837e-25
-4.272298e-25
-1.773663e-25
-7.087422e-26
-2.711961e-26
-1.020112e-26
-2.837453e-27
-4.400177e-29
2.121512e-30
2.862344e-30
1.012724e-30
3.258266e-31
1.936414e-32
-3.705878e-33
-1.965370e-33
-3.426148e-34
-1.472984e-34
-5.017036e-35
-5.261016e-35
-4.571927e-35
-2.425003e-35
-1.212236e-35
-5.918576e-36
-2.872836e-36
-1.381093e-36
-6.491259e-37
-2.785507e-37
-1.513006e-38
4.809815e-39
1.043794e-39
4.667980e-40
1.878069e-40
6.620549e-41
1.326000e+00
6.739997e-01
1.939380e-01
2.456433e-02
3.497301e-04
8.107276e-07
1.298174e-06
7.491544e-07
2.551397e-07
9.719513e-08
4.706198e-08
2.451483e-08
1.201290e-08
5.371124e-09
2.335735e-09
4.132495e-10
-8.640355e-12
-5.513597e-12
-2.094158e-12
-6.701434e-13
-2.041473e-13
-4.703080e-14
-8.693846e-15
-2.009569e-15
-8.336379e-16
-3.826973e-16
-2.068025e-16
-7.667363e-17
1.262400e-18
5.972606e-19
7.247193e-19
5.240267e-19
1.616409e-19
-4.369873e-22
-2.925305e-21
-1.362163e-21
-8.646346e-22
-6.839470e-21
-1.397351e-20
-1.323546e-20
-2.883822e-21
7.548539e-23
2.682144e-23
1.676107e-23
9.289311e-24
4.764995e-24
2.239884e-24
9.955837e-25
4.272298e-25
1.773663e-25
7.087422e-26
2.711961e-26
1.020112e-26
2.837453e-27
4.400177e-29
-2.121512e-30
-2.862344e-30
-1.012724e-30
-3.258266e-31
-1.936414e-32
3.705878e-33
1.965370e-33
3.426148e-34
1.472984e-34
5.017036e-35
5.261016e-35
4.571927e-35
2.425003e-35
1.212236e-35
5.918576e-36
2.872836e-36
1.381093e-36
6.491259e-37
2.785507e-37
1.513006e-38
-4.809815e-39
-1.043794e-39
-4.667980e-40
-1.878069e-40
-6.620549e-41
1.041969e+00
9.580313e-01
5.985864e-01
2.398297e-01
5.881666e-02
3.978966e-03
-8.407265e-05
-6.972936e-05
-2.503841e-05
-1.055558e-05
-4.762727e-06
-2.176058e-06
-9.550280e-07
-2.735698e-07
1.394147e-09
2.297293e-09
1.462325e-09
5.306106e-10
1.442542e-10
2.860447e-11
3.326681e-12
3.016316e-13
2.894741e-14
3.537705e-15
1.862518e-16
-2.864182e-16
-1.834352e-16
-1.883148e-16
-1.794350e-16
-1.206368e-16
-6.588166e-17
-9.949818e-18
5.232497e-19
4.259007e-19
2.558989e-19
1.034433e-19
4.641738e-20
5.442298e-20
3.256245e-20
-1.230703e-20
-1.349893e-20
-1.034669e-20
-5.222051e-21
-2.616342e-21
-1.244459e-21
-5.662118e-22
-2.469413e-22
-1.034419e-22
-4.172436e-23
-1.624844e-23
-6.234156e-24
-1.662446e-24
2.003054e-27
4.296552e-27
3.860827e-27
1.613068e-27
4.598586e-28
1.347186e-28
1.615959e-29
-2.937394e-31
-2.685795e-31
-1.678100e-31
-7.887977e-32
-3.070846e-32
-1.274660e-32
-7.709197e-33
-4.295295e-33
-2.271843e-33
-1.155090e-33
-5.719724e-34
-2.763664e-34
-1.244054e-34
-1.691686e-35
2.186004e-36
5.725905e-37
2.806758e-37
1.210286e-37
4.989938e-38
1.936933e-38
7.689766e-39
9.999843e-01
1.000016e+00
8.880273e-01
5.934798e-01
2.706415e-01
8.393535e-02
1.549338e-02
1.213938e-03
4.899963e-04
2.095029e-04
7.542562e-05
9.977587e-06
-8.331230e-07
-8.556923e-07
-5.191617e-07
-1.807080e-07
-2.611401e-08
1.519516e-10
3.611487e-10
7.060056e-11
2.435025e-14
-2.051648e-12
-7.312779e-13
-2.538491e-13
-1.107852e-13
-5.854490e-14
-1.257797e-14
3.205879e-16
6.384528e-18
-1.173985e-16
-6.223207e-17
-7.221599e-17
-5.612138e-17
-2.769792e-17
-1.307964e-17
-5.730028e-18
-2.476711e-18
-6.484683e-19
-8.647421e-21
4.166603e-20
1.085598e-19
9.494714e-20
4.916647e-20
2.480893e-20
1.224942e-20
5.914895e-21
2.776529e-21
1.274715e-21
5.168339e-22
1.171602e-22
8.543426e-24
-2.847104e-24
-2.382836e-24
-8.515641e-25
-2.128129e-25
-1.629910e-26
8.058813e-29
4.443235e-28
1.965799e-28
7.732493e-29
2.549127e-29
7.537526e-30
2.582769e-30
5.973768e-31
-1.198910e-32
2.700993e-31
2.493490e-31
1.406669e-31
7.689538e-32
4.218036e-32
9.792627e-33
-7.491618e-35
-3.110193e-34
-1.237344e-34
-4.712951e-35
-2.016193e-35
-8.470697e-36
-3.506280e-36
-1.470201e-36
-6.787113e-37
9.998855e-01
1.000114e+00
9.864038e-01
8.524047e-01
5.809106e-01
2.961015e-01
9.865333e-02
2.188960e-02
6.589688e-04
2.112084e-04
1.425769e-04
8.876448e-05
4.094835e-05
7.650960e-06
-5.555674e-07
-3.670733e-07
-2.258937e-07
-7.498828e-08
-1.127240e-09
3.976221e-10
3.313802e-10
1.297898e-10
4.941990e-11
2.102402e-11
8.278858e-12
1.023008e-12
-1.425454e-14
-3.668057e-14
-1.812208e-14
-7.038921e-15
-1.114906e-15
-7.923278e-17
-4.721855e-17
-2.616558e-17
4.995732e-18
7.440034e-18
-2.084409e-18
-1.794904e-18
-1.032520e-18
-1.926701e-19
3.361257e-20
6.639046e-20
2.801784e-20
1.370625e-20
-1.720002e-20
5.141700e-21
-1.610842e-23
5.770191e-22
3.877641e-22
1.065402e-22
-1.158186e-23
-8.156060e-24
-4.410638e-24
-1.969752e-24
-9.251577e-25
-4.168612e-25
-1.591067e-25
-4.345818e-26
-9.434315e-27
-6.983587e-28
8.908610e-29
4.992803e-29
1.994296e-29
7.569872e-30
5.001891e-30
-1.210208e-30
-8.031087e-30
-7.161823e-30
-2.338984e-30
2.700486e-32
5.800763e-32
3.671622e-32
1.595435e-32
7.150093e-33
3.278385e-33
1.519367e-33
7.158186e-34
2.938070e-34
6.789464e-35
-5.913928e-37
9.999700e-01
1.000030e+00
1.000149e+00
9.654684e-01
8.294945e-01
5.644963e-01
3.365674e-01
1.267497e-01
3.477297e-02
2.720036e-03
-8.792877e-05
6.858255e-05
6.012152e-05
4.204718e-05
1.737687e-05
2.018962e-06
-3.103914e-07
-2.008547e-07
-1.118791e-07
-4.577957e-08
-1.895516e-08
-8.050518e-09
-2.855567e-09
-2.099395e-10
4.413935e-12
8.579815e-12
4.862045e-12
9.323057e-13
-1.050892e-15
-1.687313e-14
-9.653062e-15
-4.210709e-15
-1.806272e-15
-7.888879e-16
-1.216857e-16
4.443264e-18
1.709291e-17
2.115889e-17
1.599044e-17
1.003692e-17
6.438091e-18
3.974355e-18
2.303048e-18
1.279108e-18
6.829770e-19
3.346540e-19
1.400016e-19
4.778645e-20
1.434313e-20
4.069771e-21
1.313290e-21
5.134171e-22
1.960605e-22
6.629223e-23
1.778645e-23
2.684165e-24
-2.897897e-25
-1.248715e-25
-5.530701e-26
-2.248505e-26
-7.762951e-27
-2.685097e-27
-8.575289e-28
-3.060543e-28
-1.131109e-28
-8.849537e-32
-4.990494e-30
-8.188352e-30
-7.794036e-30
-5.193336e-30
-2.762388e-30
-1.411660e-30
-7.015891e-31
-3.388272e-31
-1.523431e-31
-6.074696e-32
-1.105961e-32
7.778319e-34
2.968344e-34
1.525350e-34
9.999924e-01
1.000008e+00
1.000026e+00
9.983721e-01
9.484033e-01
8.110554e-01
5.427048e-01
3.576880e-01
1.479146e-01
5.014318e-02
9.816168e-03
2.599845e-04
2.026043e-05
3.558962e-05
3.271708e-05
2.107083e-05
1.052489e-05
4.482766e-06
1.943803e-06
7.387078e-07
1.219139e-07
-1.074736e-08
-6.420539e-09
-4.111905e-09
-9.706368e-10
-7.047855e-12
8.758663e-12
7.191108e-12
3.907762e-12
1.827428e-12
8.295540e-13
3.785586e-13
1.430535e-13
1.853780e-14
-4.194730e-16
-3.422988e-16
-1.363574e-16
-7.413153e-18
-3.273278e-18
3.001129e-18
-4.044673e-18
2.703368e-18
1.891141e-18
1.627520e-19
4.975170e-19
2.713240e-19
1.223292e-19
7.280219e-20
2.402558e-20
5.971769e-21
1.482664e-21
6.003605e-22
2.599407e-22
1.283042e-22
6.601803e-23
3.175574e-23
1.302844e-23
5.094003e-24
1.685654e-24
4.532916e-25
8.691881e-26
-6.908478e-28
-1.894935e-27
-6.592865e-28
-2.443230e-28
-2.586585e-28
-2.525270e-28
-1.163532e-29
-3.120758e-30
8.620750e-32
8.962894e-33
-5.122233e-31
-4.845095e-31
9.264774e-32
-2.035564e-31
-1.401990e-31
-8.414587e-32
-4.164927e-32
-1.900142e-32
-7.464998e-33
9.999980e-01
1.000002e+00
1.000004e+00
1.000084e+00
9.919748e-01
9.348975e-01
7.949955e-01
5.168355e-01
3.729406e-01
1.556026e-01
5.845485e-02
1.606532e-02
2.099976e-03
8.977035e-05
2.352176e-05
2.082943e-05
1.065207e-05
4.202013e-06
1.877543e-06
1.320653e-06
9.227530e-07
3.824273e-07
5.808288e-08
-5.965800e-09
-3.875213e-09
-2.288678e-09
-1.025035e-09
-4.554881e-10
-2.010920e-10
-8.981827e-11
-3.947635e-11
-6.324298e-12
5.297859e-15
1.551972e-13
8.711349e-14
3.773855e-14
1.598060e-14
6.750061e-15
2.873034e-15
1.227364e-15
5.204062e-16
2.200360e-16
8.468531e-17
2.530993e-17
8.563011e-18
3.825233e-18
8.427415e-19
6.809656e-20
-1.232679e-20
-2.897089e-21
8.998137e-23
-5.804404e-22
-2.860191e-22
-5.408405e-23
-1.581037e-24
1.558658e-23
1.158827e-23
6.292698e-24
3.286306e-24
1.619320e-24
8.170934e-25
3.651658e-25
1.236173e-25
3.752043e-26
1.000569e-26
1.958859e-27
8.294886e-29
-3.923120e-28
-3.784589e-28
-2.086624e-28
-1.095964e-28
-5.608040e-29
-2.981719e-29
-1.048959e-29
-2.192552e-31
-1.081172e-31
-3.850636e-32
-3.361005e-32
-1.809340e-32
-5.955756e-33
9.999996e-01
1.000000e+00
1.000000e+00
1.000023e+00
9.999501e-01
9.849015e-01
9.218620e-01
7.795325e-01
5.212580e-01
3.784561e-01
1.650570e-01
6.664374e-02
2.043900e-02
4.208959e-03
3.669489e-04
7.632319e-05
4.534723e-05
2.498564e-05
9.084691e-06
1.885090e-06
8.832475e-07
7.367177e-07
4.544029e-07
2.222077e-07
9.378562e-08
3.949847e-08
1.636724e-08
6.957771e-09
1.988623e-09
-1.642601e-11
-4.019498e-11
-3.786039e-11
-2.034930e-11
-8.918924e-12
-3.846371e-12
-1.650013e-12
-7.080949e-13
-3.048522e-13
-1.313814e-13
-5.756225e-14
-1.538600e-14
-1.627379e-18
1.134815e-16
7.730499e-17
2.994216e-17
7.408782e-18
3.911577e-18
2.099996e-18
9.965075e-19
4.440978e-19
1.909526e-19
7.980760e-20
3.117757e-20
9.341738e-21
1.297438e-21
4.638076e-23
-7.805635e-24
-2.079407e-24
2.043671e-25
8.769218e-25
8.295398e-25
4.171314e-25
1.811814e-25
6.880070e-26
2.258057e-26
5.645525e-27
1.154571e-27
-3.444615e-28
-3.001801e-28
-1.246776e-28
-9.163718e-29
-5.142882e-29
-3.037256e-29
-2.570656e-29
-1.683657e-29
-8.240168e-30
-3.983126e-30
-1.904134e-30
-9.199772e-31
-3.792685e-31
9.999999e-01
1.000000e+00
1.000000e+00
1.000011e+00
1.000025e+00
9.988864e-01
9.786911e-01
9.080004e-01
7.698266e-01
5.221684e-01
3.810948e-01
1.771538e-01
7.562333e-02
2.530071e-02
5.852952e-03
4.219757e-04
4.129584e-05
3.018783e-05
2.483364e-05
1.327736e-05
3.519692e-06
7.684458e-07
4.649371e-07
2.256072e-07
9.579616e-08
3.840697e-08
1.683612e-08
7.018438e-09
5.339983e-09
2.978012e-09
1.222354e-09
4.924944e-10
1.991647e-10
8.130735e-11
3.336276e-11
1.363444e-11
5.810405e-12
1.586320e-12
-7.443981e-14
-6.829298e-14
-5.250249e-14
-2.620374e-14
-3.811455e-15
1.696702e-17
7.305531e-17
3.172950e-17
5.289349e-18
1.583616e-18
1.018895e-18
4.109807e-19
1.864541e-19
1.076123e-19
5.939837e-20
3.280575e-20
1.689312e-20
7.752721e-21
2.574129e-21
5.215186e-22
-1.213403e-23
-1.317082e-24
-2.029628e-24
-1.549389e-24
-7.184325e-25
-2.889752e-25
-6.796584e-26
-1.861710e-26
-1.172222e-26
-9.017257e-27
-6.293764e-27
-3.623256e-27
-2.114159e-27
-8.727180e-28
-9.570212e-29
-1.047642e-29
-1.510281e-29
-5.512824e-30
-3.603449e-30
-1.702793e-30
-9.433658e-31
-1.105621e-31
9.999999e-01
1.000000e+00
1.000000e+00
1.000002e+00
1.000013e+00
9.999879e-01
9.972187e-01
9.710068e-01
8.969480e-01
7.615777e-01
5.237068e-01
3.741162e-01
1.874456e-01
8.573022e-02
3.190945e-02
8.850882e-03
1.193431e-03
2.138292e-05
2.430582e-05
2.211596e-05
1.599319e-05
6.243576e-06
1.866873e-06
8.609579e-07
5.158329e-07
2.694106e-07
1.158005e-07
2.810678e-08
5.248787e-09
2.633606e-09
1.170956e-09
4.007891e-10
1.898376e-10
3.733849e-11
1.622701e-11
1.088586e-11
5.891431e-12
4.486173e-12
2.415790e-12
5.602613e-13
-5.311180e-14
-4.344382e-14
-3.136061e-14
-1.287337e-14
-1.448382e-15
-2.350465e-17
4.511885e-17
2.405812e-17
1.126752e-17
3.966354e-18
2.559444e-19
1.005898e-19
4.572610e-20
2.058563e-20
1.561507e-20
9.610481e-21
5.793672e-21
3.190991e-21
1.467628e-21
5.672052e-22
1.886563e-22
4.589370e-23
5.396174e-24
-1.227348e-24
-4.470135e-25
-2.083328e-25
-6.076816e-26
-2.126232e-26
-5.064461e-27
-1.150060e-27
-1.942127e-27
-1.899539e-27
-1.335675e-27
-6.909596e-28
-3.497079e-28
-1.748400e-28
-8.462556e-29
-4.133724e-29
-2.087947e-29
-8.885299e-30
1.000000e+00
1.000000e+00
1.000000e+00
9.999999e-01
1.000007e+00
1.000008e+00
9.999647e-01
9.942062e-01
9.638451e-01
8.861131e-01
7.589169e-01
5.119542e-01
3.893504e-01
1.920827e-01
9.233766e-02
3.714816e-02
1.164678e-02
2.273293e-03
5.730770e-05
2.194583e-05
1.750112e-05
1.403778e-05
7.069070e-06
1.867225e-06
5.030193e-07
3.094329e-07
2.308522e-07
1.461739e-07
7.109917e-08
3.231584e-08
1.487660e-08
6.872081e-09
3.134055e-09
1.465617e-09
6.923926e-10
2.256691e-10
2.985503e-11
3.348230e-12
3.431286e-12
2.430546e-12
1.229830e-12
2.939545e-13
-2.547331e-14
-2.568371e-14
-1.695412e-14
-8.054188e-15
-3.556585e-15
-9.827874e-16
1.007687e-17
4.663746e-18
4.700804e-18
2.952366e-18
9.180815e-19
3.379495e-20
1.064958e-20
1.186376e-21
6.211905e-22
1.537858e-21
1.450249e-21
8.487850e-22
4.752257e-22
2.507866e-22
1.211698e-22
5.551181e-23
2.238737e-23
8.304625e-24
2.607337e-24
5.530876e-25
-4.796963e-26
-5.338742e-26
-1.023446e-26
-2.001622e-27
-7.911050e-28
-6.431368e-28
-2.646254e-28
-1.761654e-28
-5.049174e-29
-3.516036e-29
-1.155866e-29
-3.678783e-30
1.000000e+00
1.000000e+00
1.000000e+00
1.000000e+00
1.000002e+00
1.000006e+00
1.000010e+00
9.997398e-01
9.914187e-01
9.548019e-01
8.817640e-01
7.454736e-01
5.159699e-01
3.938323e-01
1.986279e-01
9.887527e-02
4.195573e-02
1.451476e-02
3.621235e-03
3.364290e-04
1.927277e-05
1.703262e-05
1.390936e-05
9.835757e-06
3.692645e-06
6.732350e-07
2.255884e-07
1.303977e-07
6.395073e-08
2.422468e-08
1.267799e-08
5.178845e-09
2.991825e-09
1.151090e-09
7.014468e-10
5.553910e-10
3.074617e-10
7.846302e-11
3.734036e-12
2.339471e-12
1.795365e-12
1.220599e-12
6.506316e-13
2.680714e-13
8.490464e-14
4.467721e-15
-3.592676e-15
-3.157665e-15
-1.809391e-15
-8.228481e-16
-3.182192e-16
-2.417741e-17
3.320886e-18
1.454279e-18
7.337086e-19
2.581597e-19
1.364440e-20
-7.454991e-22
-2.543101e-22
-4.890131e-23
7.005059e-23
1.282436e-22
1.220427e-22
7.253946e-23
3.847321e-23
1.668319e-23
5.660288e-24
1.188447e-24
1.678701e-26
-8.630325e-26
-7.479368e-26
-3.696435e-26
-1.903593e-26
-9.739546e-27
-4.847321e-27
-2.457709e-27
-1.219602e-27
-6.066033e-28
-3.147760e-28
-1.329083e-28
1.000000e+00
1.000000e+00
1.000000e+00
1.000000e+00
1.000000e+00
1.000002e+00
1.000007e+00
9.999036e-01
9.998457e-01
9.863012e-01
9.508203e-01
8.715684e-01
7.385071e-01
5.161967e-01
3.972236e-01
2.051863e-01
1.051810e-01
4.637129e-02
1.744037e-02
5.002803e-03
5.948640e-04
-5.601498e-06
7.706050e-06
9.524684e-06
8.283587e-06
5.244087e-06
2.569886e-06
1.220201e-06
5.942583e-07
2.879317e-07
1.375598e-07
6.569530e-08
3.160723e-08
1.296724e-08
2.871533e-09
5.665252e-10
4.597860e-10
3.398769e-10
1.540651e-10
3.094171e-11
6.619002e-13
7.516047e-13
3.078985e-13
2.463421e-13
1.870075e-13
1.061982e-13
4.598892e-14
1.730168e-14
4.750904e-15
-3.587066e-16
-4.672078e-16
-3.797578e-16
-1.805173e-16
-5.277972e-17
-1.385953e-19
4.025180e-19
3.419020e-19
1.654123e-19
7.211316e-20
1.817939e-20
1.247230e-22
3.058043e-23
-7.876266e-23
-6.244323e-23
-2.532611e-23
-1.236049e-23
-6.900389e-24
-3.534967e-24
-9.192527e-25
-6.776809e-26
-6.400307e-26
-2.312895e-26
-1.826377e-26
-8.260637e-27
-2.911324e-27
-2.444638e-27
-1.013034e-27
-4.497891e-28
-2.621934e-28
-1.314187e-28
1.000000e+00
1.000000e+00
1.000000e+00
1.000000e+00
1.000000e+00
1.000000e+00
1.000004e+00
9.999602e-01
1.000053e+00
9.976085e-01
9.838451e-01
9.447114e-01
8.635036e-01
7.326636e-01
5.157731e-01
4.002001e-01
2.115638e-01
1.116883e-01
5.053706e-02
2.038097e-02
7.020233e-03
1.718403e-03
2.177504e-04
1.772010e-05
4.484848e-06
4.589005e-06
1.823378e-06
8.110917e-07
4.944088e-07
2.894793e-07
7.556384e-08
5.223883e-08
3.068714e-08
2.530452e-08
1.555073e-08
5.383736e-09
4.897623e-10
3.409989e-10
2.671636e-10
1.777970e-10
8.800651e-11
4.161557e-11
1.545159e-11
2.433866e-12
5.827862e-14
8.610568e-14
2.587938e-14
1.365808e-14
1.026872e-14
5.817062e-15
2.178441e-15
3.334886e-16
-1.791929e-16
-1.515255e-16
-8.746173e-17
-3.555180e-17
-9.928815e-18
-8.385267e-20
8.646555e-20
6.933921e-20
3.728034e-20
1.582229e-20
6.731241e-21
2.867473e-21
1.204719e-21
4.697086e-22
5.772826e-23
-6.884138e-24
-4.357869e-24
-2.543100e-24
-1.203432e-24
-5.820133e-25
-2.837781e-25
-1.392654e-25
-6.847796e-26
-3.312661e-26
-1.642160e-26
-8.127334e-27
-4.043440e-27
-1.829731e-27
1.000000e+00
1.000000e+00
1.000000e+00
1.000000e+00
1.000000e+00
1.000000e+00
1.000002e+00
9.999842e-01
9.999900e-01
9.999025e-01
9.962281e-01
9.802160e-01
9.386587e-01
8.558837e-01
7.276257e-01
5.149563e-01
4.022383e-01
2.166815e-01
1.189416e-01
5.366694e-02
2.136281e-02
7.322665e-03
2.218930e-03
7.154394e-04
3.208072e-04
1.412004e-04
6.356610e-05
2.814934e-05
1.263224e-05
5.791840e-06
2.695822e-06
8.690748e-07
1.150061e-07
1.984825e-08
1.943124e-08
1.542312e-08
8.400501e-09
2.172879e-09
3.020536e-10
1.572284e-10
8.039688e-11
4.216778e-11
3.165867e-11
1.994812e-11
9.219899e-12
4.191598e-12
1.315249e-12
9.120642e-14
-1.799237e-14
6.796310e-16
1.591654e-15
1.324405e-15
7.009027e-16
1.966638e-16
-6.123410e-17
-5.378941e-17
-3.511313e-17
-1.899495e-17
-7.914193e-18
-3.290246e-18
-1.369660e-18
-5.797083e-19
-2.317153e-19
-4.980585e-20
3.913719e-22
7.937988e-22
5.473234e-22
2.580635e-22
1.125323e-22
4.925163e-23
2.108004e-23
8.725324e-24
3.502200e-24
1.373610e-24
5.285969e-25
1.962682e-25
6.630877e-26
1.818904e-26
2.044044e-27
3.069086e-29
1.000000e+00
1.000000e+00
1.000000e+00
1.000000e+00
1.000000e+00
1.000000e+00
1.000001e+00
9.999935e-01
9.999928e-01
9.999948e-01
9.996770e-01
9.947621e-01
9.763870e-01
9.334392e-01
8.475678e-01
7.249403e-01
5.157689e-01
4.043920e-01
2.191608e-01
1.311035e-01
6.146895e-02
2.459726e-02
8.053691e-03
1.865949e-03
2.971974e-04
1.359367e-04
6.140529e-05
2.839119e-05
9.631356e-06
5.344958e-06
2.728298e-06
2.232582e-06
1.218921e-06
3.046379e-07
2.655751e-08
1.290561e-08
1.172814e-08
8.893995e-09
4.569484e-09
2.191431e-09
8.858717e-10
1.862684e-10
2.410072e-11
1.055087e-11
9.056124e-12
4.173893e-12
3.358631e-12
1.974295e-12
8.968088e-13
2.503497e-13
1.955815e-15
-3.092783e-15
-3.628262e-16
2.126113e-16
2.201482e-16
9.157004e-17
2.632236e-17
3.417510e-18
-1.464034e-18
-1.511889e-18
-1.100497e-18
-5.239548e-19
-2.243821e-19
-1.909028e-19
-1.175322e-19
-5.271737e-20
-2.269622e-20
-9.655676e-21
-4.097076e-21
-1.743557e-21
-7.457849e-22
-3.212423e-22
-1.394211e-22
-6.058866e-23
-2.608896e-23
-1.093510e-23
-4.401839e-24
-1.676597e-24
-6.061441e-25
-2.285556e-25
1.000000e+00
1.000000e+00
1.000000e+00
1.000000e+00
1.000000e+00
1.000000e+00
1.000000e+00
9.999985e-01
9.999946e-01
9.999960e-01
9.999948e-01
9.992601e-01
9.929719e-01
9.723858e-01
9.301771e-01
8.318627e-01
7.228088e-01
5.194354e-01
4.070475e-01
2.222227e-01
1.367644e-01
6.853831e-02
3.011680e-02
1.131203e-02
3.500688e-03
9.617827e-04
4.566968e-04
2.298948e-04
1.164634e-04
4.016628e-05
7.701163e-06
2.111951e-06
1.847565e-06
1.361247e-06
6.236419e-07
1.313869e-07
1.051480e-08
5.481914e-09
3.244894e-09
2.056887e-09
1.714425e-09
1.143476e-09
5.713515e-10
2.745401e-10
9.345434e-11
1.350183e-11
2.913649e-12
1.575176e-12
8.942232e-13
7.009887e-13
4.213070e-13
1.531581e-13
2.189286e-14
-3.756248e-16
-2.641094e-16
-1.923688e-17
1.084346e-17
-8.500913e-18
-2.178806e-17
-1.693800e-17
-7.083831e-18
-2.810592e-18
-1.220594e-18
-3.264709e-19
-1.143401e-19
-5.049046e-20
-2.000689e-20
-7.923594e-21
-3.223549e-21
-1.616316e-21
-5.480097e-22
-2.774253e-22
-8.042882e-23
-3.889461e-23
-1.361352e-23
-1.108427e-23
-2.736874e-24
-7.406375e-25
-5.286023e-25
-2.897762e-25
1.000000e+00
1.000000e+00
1.000000e+00
1.000000e+00
1.000000e+00
1.000000e+00
1.000000e+00
1.000000e+00
9.999972e-01
9.999962e-01
9.999970e-01
9.999432e-01
9.989928e-01
9.901981e-01
9.711622e-01
9.209892e-01
8.231459e-01
7.195388e-01
5.217960e-01
4.077912e-01
2.280493e-01
1.365504e-01
6.944521e-02
3.119471e-02
1.174773e-02
3.383288e-03
5.567443e-04
2.325504e-04
1.222496e-04
9.855583e-05
5.477573e-05
1.470348e-05
1.605971e-06
1.342577e-06
1.041578e-06
6.839980e-07
3.358795e-07
1.589106e-07
6.171123e-08
1.084200e-08
1.597980e-09
1.086566e-09
5.633466e-10
2.757976e-10
2.206841e-10
1.335938e-10
6.256634e-11
2.210051e-11
2.855176e-12
5.099659e-13
4.183640e-13
3.110219e-13
1.894667e-13
8.538996e-14
3.660187e-14
1.578172e-14
6.883454e-15
3.010355e-15
1.301680e-15
5.869062e-16
1.798728e-16
1.834884e-18
-4.002449e-18
-1.334421e-18
-6.600096e-19
-3.276493e-19
-1.639010e-19
-8.061047e-20
-3.899237e-20
-1.852686e-20
-8.897880e-21
-4.209705e-21
-1.973707e-21
-9.324085e-22
-4.313291e-22
-1.960284e-22
-8.649814e-23
-3.833237e-23
-1.161399e-23
-6.292440e-25
1.000000e+00
1.000000e+00
1.000000e+00
1.000000e+00
1.000000e+00
1.000000e+00
1.000000e+00
1.000000e+00
9.999994e-01
9.999972e-01
9.999972e-01
9.999747e-01
9.999906e-01
9.975796e-01
9.896978e-01
9.671911e-01
9.135020e-01
8.160481e-01
7.166296e-01
5.214748e-01
4.107322e-01
2.331461e-01
1.462877e-01
7.656961e-02
3.641041e-02
1.519722e-02
5.239095e-03
1.339042e-03
2.943450e-04
1.012697e-04
8.389379e-05
6.288334e-05
2.887961e-05
7.457927e-06
9.448578e-07
6.458538e-07
2.895935e-07
1.579949e-07
1.209387e-07
7.748815e-08
3.753217e-08
1.784197e-08
6.143261e-09
8.498814e-10
2.045975e-10
8.414484e-11
6.849614e-11
5.392521e-11
3.270960e-11
1.250215e-11
2.150743e-12
3.320231e-13
1.799160e-13
5.413966e-14
3.589510e-14
1.581217e-14
3.818287e-15
1.447074e-15
9.870401e-16
5.716244e-16
4.682563e-16
2.828989e-16
1.265321e-16
5.529317e-17
2.381283e-17
1.056058e-17
2.895992e-18
7.515402e-19
5.641183e-19
3.116542e-19
1.443396e-19
6.156663e-20
2.465409e-20
9.137755e-21
2.983731e-21
7.283629e-22
8.401090e-23
-2.896635e-23
-2.145488e-23
-1.596908e-23
1.000000e+00
1.000000e+00
1.000000e+00
1.000000e+00
1.000000e+00
1.000000e+00
1.000000e+00
1.000000e+00
1.000000e+00
9.999985e-01
9.999987e-01
9.999874e-01
9.999893e-01
9.996402e-01
9.969724e-01
9.879875e-01
9.630018e-01
9.062458e-01
8.112598e-01
7.119687e-01
5.210510e-01
4.143443e-01
2.385240e-01
1.468738e-01
7.668994e-02
3.691880e-02
1.601447e-02
5.921536e-03
1.809008e-03
4.344400e-04
9.146091e-05
6.308016e-05
4.828274e-05
3.176226e-05
1.496784e-05
5.683536e-06
2.398151e-06
7.944230e-07
1.295028e-07
6.222511e-08
3.418882e-08
1.807663e-08
1.447029e-08
8.936107e-09
4.329935e-09
1.502054e-09
1.650590e-10
4.584897e-11
3.120924e-11
2.431609e-11
1.524364e-11
7.342725e-12
3.238719e-12
1.474176e-12
6.646460e-13
3.053752e-13
1.364422e-13
6.469607e-14
2.125994e-14
2.001328e-15
4.006951e-16
2.517558e-16
1.150080e-16
4.367442e-17
2.021567e-17
1.054332e-17
8.361382e-18
4.534364e-18
6.038230e-19
2.822392e-19
1.239410e-19
5.234503e-20
2.246575e-20
1.198290e-20
5.767365e-21
2.597517e-21
9.957281e-22
3.043811e-22
3.144889e-23
-4.829759e-24
1.000000e+00
1.000000e+00
1.000000e+00
1.000000e+00
1.000000e+00
1.000000e+00
1.000000e+00
1.000000e+00
1.000000e+00
9.999994e-01
9.999994e-01
9.999942e-01
9.999918e-01
9.999919e-01
9.993826e-01
9.962402e-01
9.860198e-01
9.586382e-01
8.993300e-01
8.088380e-01
7.067203e-01
5.196629e-01
4.154388e-01
2.429145e-01
1.590775e-01
8.335922e-02
4.025378e-02
1.764364e-02
6.889420e-03
2.325878e-03
6.580293e-04
1.628529e-04
5.980490e-05
3.792146e-05
2.381935e-05
1.095543e-05
4.199484e-06
2.572687e-06
1.465434e-06
7.222922e-07
3.024133e-07
6.794613e-08
1.137745e-08
7.571471e-09
4.359496e-09
3.550143e-09
2.205153e-09
8.374197e-10
1.470885e-10
2.164156e-11
1.339991e-11
4.959540e-12
1.422751e-12
1.388776e-12
6.344243e-13
2.771572e-13
1.001475e-13
6.537918e-14
5.229600e-14
3.130833e-14
1.414819e-14
6.390744e-15
2.860093e-15
1.345476e-15
4.401134e-16
4.848255e-17
9.174122e-18
6.530884e-18
7.643897e-18
6.494330e-18
3.606252e-18
1.345906e-18
2.315270e-19
2.037656e-21
1.171002e-21
2.288508e-22
-1.734877e-22
-2.188529e-22
-1.966675e-22
-1.165017e-22
1.000000e+00
1.000000e+00
1.000000e+00
1.000000e+00
1.000000e+00
1.000000e+00
1.000000e+00
1.000000e+00
1.000000e+00
9.999998e-01
9.999998e-01
9.999983e-01
9.999938e-01
9.999948e-01
9.999396e-01
9.991277e-01
9.953475e-01
9.838117e-01
9.547283e-01
8.885419e-01
8.115686e-01
7.049698e-01
5.185036e-01
4.165132e-01
2.444433e-01
1.648818e-01
8.848451e-02
4.340044e-02
1.931861e-02
7.735099e-03
2.730547e-03
8.226641e-04
2.229967e-04
7.539098e-05
4.277172e-05
2.818181e-05
1.315679e-05
3.192195e-06
1.381868e-06
7.159323e-07
5.705177e-07
3.717593e-07
2.007258e-07
7.097771e-08
1.097865e-08
2.596859e-09
2.080434e-09
1.691858e-09
1.061066e-09
5.097216e-10
2.318466e-10
1.066904e-10
4.987525e-11
2.281271e-11
1.030847e-11
4.884983e-12
1.675497e-12
1.984836e-13
4.217696e-14
2.712580e-14
1.258350e-14
4.428386e-15
2.316741e-15
1.361995e-15
1.071415e-15
6.204722e-16
1.762798e-16
9.689998e-18
6.909000e-18
3.563295e-18
3.498984e-18
3.127568e-18
2.087917e-18
1.070221e-18
4.801500e-19
1.958569e-19
7.519563e-20
2.698575e-20
9.377140e-21
2.999407e-21
1.000000e+00
1.000000e+00
1.000000e+00
1.000000e+00
1.000000e+00
1.000000e+00
1.000000e+00
1.000000e+00
1.000000e+00
9.999999e-01
9.999998e-01
9.999998e-01
9.999968e-01
9.999955e-01
9.999966e-01
9.998412e-01
9.990015e-01
9.937605e-01
9.846157e-01
9.402973e-01
8.937399e-01
7.989464e-01
7.032406e-01
5.214268e-01
4.170659e-01
2.477863e-01
1.704608e-01
9.364546e-02
4.705819e-02
2.143091e-02
8.821577e-03
3.222609e-03
1.013838e-03
2.717081e-04
7.441855e-05
3.902800e-05
3.014397e-05
2.018651e-05
9.398392e-06
3.050875e-06
5.651992e-07
3.401301e-07
2.021756e-07
1.631503e-07
1.031906e-07
4.250081e-08
9.155631e-09
1.693737e-09
1.049549e-09
4.817702e-10
2.279335e-10
7.723401e-11
4.838433e-11
2.313168e-11
8.215763e-12
4.978317e-12
4.009049e-12
2.412197e-12
1.128528e-12
5.109018e-13
2.320988e-13
1.103324e-13
3.699188e-14
5.586980e-15
1.126103e-15
8.314178e-16
6.263772e-16
3.281868e-16
1.628230e-16
8.209561e-17
1.505440e-17
2.341479e-18
1.988310e-18
6.974695e-19
4.897961e-19
1.605541e-19
1.613644e-20
5.753231e-21
5.257380e-21
2.487985e-21
1.000000e+00
1.000000e+00
1.000000e+00
1.000000e+00
1.000000e+00
1.000000e+00
1.000000e+00
1.000000e+00
1.000000e+00
1.000000e+00
9.999999e-01
9.999999e-01
9.999992e-01
9.999967e-01
9.999968e-01
9.999290e-01
9.999087e-01
9.969316e-01
9.968683e-01
9.755919e-01
9.436939e-01
8.872371e-01
7.907178e-01
7.010387e-01
5.218879e-01
4.173609e-01
2.502817e-01
1.743676e-01
9.762183e-02
5.031283e-02
2.348136e-02
9.954086e-03
3.809787e-03
1.288986e-03
3.706309e-04
8.485001e-05
3.091700e-05
2.037115e-05
1.508565e-05
1.014279e-05
5.246462e-06
1.962616e-06
5.511390e-07
1.715604e-07
1.026951e-07
7.945873e-08
5.106012e-08
2.592740e-08
1.168386e-08
5.636035e-09
2.594571e-09
1.223003e-09
5.697606e-10
2.836132e-10
9.985470e-11
1.454582e-11
3.284487e-12
1.852186e-12
1.036322e-12
5.113589e-13
1.682887e-13
1.112143e-13
8.970815e-14
4.967658e-14
1.358781e-14
1.096952e-15
4.802192e-16
3.358610e-16
1.064851e-16
1.066362e-16
9.817700e-17
5.735995e-17
3.044249e-17
1.641083e-17
8.514625e-18
3.927544e-18
1.758606e-18
6.880519e-19
2.730743e-19
9.491386e-20
1.000000e+00
1.000000e+00
1.000000e+00
1.000000e+00
1.000000e+00
1.000000e+00
1.000000e+00
1.000000e+00
1.000000e+00
1.000000e+00
1.000000e+00
9.999999e-01
9.999999e-01
9.999983e-01
9.999993e-01
9.999660e-01
9.999655e-01
9.985490e-01
9.986612e-01
9.924517e-01
9.749401e-01
9.412676e-01
8.823540e-01
7.836541e-01
6.994147e-01
5.244115e-01
4.205846e-01
2.545845e-01
1.790220e-01
1.014463e-01
5.355652e-02
2.548811e-02
1.100181e-02
4.335042e-03
1.565341e-03
5.143241e-04
1.504561e-04
4.661207e-05
1.997015e-05
1.250466e-05
8.340655e-06
4.497512e-06
2.445497e-06
1.212388e-06
4.308345e-07
7.812153e-08
4.167218e-08
2.390542e-08
1.069423e-08
4.832675e-09
2.461561e-09
1.145812e-09
5.036567e-10
2.732134e-10
2.261939e-10
1.401493e-10
6.583282e-11
3.051044e-11
1.424716e-11
7.101657e-12
2.352323e-12
3.952065e-13
7.708245e-14
7.343266e-14
5.417501e-14
2.759460e-14
1.243706e-14
6.392137e-15
1.983314e-15
1.695568e-16
5.195091e-17
4.637110e-17
1.715087e-17
1.597557e-17
7.332884e-18
2.628554e-18
1.120941e-18
4.607296e-19
2.368764e-19
9.465180e-20
1.000000e+00
1.000000e+00
1.000000e+00
1.000000e+00
1.000000e+00
1.000000e+00
1.000000e+00
1.000000e+00
1.000000e+00
1.000000e+00
1.000000e+00
1.000000e+00
1.000000e+00
9.999992e-01
9.999993e-01
9.999845e-01
9.999888e-01
9.993670e-01
9.993638e-01
9.978932e-01
9.904466e-01
9.729988e-01
9.372287e-01
8.796719e-01
7.714876e-01
6.917825e-01
5.232503e-01
4.221768e-01
2.585764e-01
1.840253e-01
1.048620e-01
5.702708e-02
2.784216e-02
1.220742e-02
4.830968e-03
1.743045e-03
5.770609e-04
1.830514e-04
6.121948e-05
2.452315e-05
1.329593e-05
8.312562e-06
3.972408e-06
1.856619e-06
1.188074e-06
7.193629e-07
3.526644e-07
1.759916e-07
8.606452e-08
4.328943e-08
2.090329e-08
1.025964e-08
4.260975e-09
9.426105e-10
2.055128e-10
1.395159e-10
6.620599e-11
2.157557e-11
1.091649e-11
6.990160e-12
5.591258e-12
3.059427e-12
8.831498e-13
8.630987e-14
2.322538e-14
2.321199e-14
8.415073e-15
6.300937e-15
4.901670e-15
3.016253e-15
1.479920e-15
7.348622e-16
3.829562e-16
1.932740e-16
9.816095e-17
4.894879e-17
2.281775e-17
1.057474e-17
3.349789e-18
6.105905e-19
1.000000e+00
1.000000e+00
1.000000e+00
1.000000e+00
1.000000e+00
1.000000e+00
1.000000e+00
1.000000e+00
1.000000e+00
1.000000e+00
1.000000e+00
1.000000e+00
1.000000e+00
9.999996e-01
9.999996e-01
9.999930e-01
9.999974e-01
9.997687e-01
9.995592e-01
9.994188e-01
9.969023e-01
9.891760e-01
9.703943e-01
9.337591e-01
8.782549e-01
7.661688e-01
6.868959e-01
5.219647e-01
4.232857e-01
2.619745e-01
1.899644e-01
1.067942e-01
5.993365e-02
3.036467e-02
1.379664e-02
5.613840e-03
2.047370e-03
6.777765e-04
2.136135e-04
7.155408e-05
2.747437e-05
1.406083e-05
1.025990e-05
4.819597e-06
1.647787e-06
7.252620e-07
3.633089e-07
1.728802e-07
7.822675e-08
4.018107e-08
1.940387e-08
1.033683e-08
8.432372e-09
5.469352e-09
2.729828e-09
1.301621e-09
6.339018e-10
3.166266e-10
1.135633e-10
2.340748e-11
5.724952e-12
4.711338e-12
3.327979e-12
1.801294e-12
8.254957e-13
3.982962e-13
1.387320e-13
1.694666e-14
2.931289e-15
2.778906e-15
1.088744e-15
3.796620e-16
3.367006e-16
1.892921e-16
9.366988e-17
4.903934e-17
1.938293e-17
1.053647e-17
8.473656e-18
3.858303e-18
1.000000e+00
1.000000e+00
1.000000e+00
1.000000e+00
1.000000e+00
1.000000e+00
1.000000e+00
1.000000e+00
1.000000e+00
1.000000e+00
1.000000e+00
1.000000e+00