# vtk DataFile Version 3.0
MUSCL
ASCII
DATASET STRUCTURED_POINTS
DIMENSIONS 80 80 1
ORIGIN 0 0 0
SPACING 0.0125 0.0125 1
POINT_DATA 6400
SCALARS Temperature double 1
LOOKUP_TABLE default
0.000000e+00
-6.739982e-01
-1.939408e-01
-2.456940e-02
-3.484521e-04
5.515463e-05
-2.026129e-07
-9.072163e-08
-1.199974e-07
-7.066338e-08
-2.712011e-08
-1.142989e-08
-5.340153e-09
-2.724859e-09
-1.015063e-09
-1.290236e-10
5.375325e-12
3.571609e-12
1.460380e-12
1.640826e-13
-1.504249e-14
-5.876619e-15
-1.372756e-15
1.668930e-15
3.073109e-15
2.285920e-15
1.002714e-15
3.934407e-16
1.344872e-16
4.367303e-17
1.401295e-17
3.515114e-18
8.669958e-19
2.244384e-19
6.320430e-20
1.937586e-20
6.278051e-21
2.070738e-21
6.731482e-22
2.118719e-22
7.265124e-23
2.886698e-23
5.343418e-24
-2.803497e-25
-2.048073e-25
-1.567473e-25
-9.445955e-26
-5.471266e-26
-3.190984e-26
-9.806642e-27
3.220152e-29
1.478926e-29
3.619932e-29
2.234134e-29
8.447756e-30
3.209078e-30
1.423702e-30
7.135091e-31
3.579929e-31
1.682414e-31
7.297395e-32
2.941595e-32
1.076385e-32
3.476632e-34
1.092627e-36
-1.744881e-35
-7.521904e-36
-2.370690e-36
-7.798748e-37
-2.826363e-37
-1.077903e-37
-3.809995e-38
-8.750676e-39
5.208026e-39
5.197077e-39
2.247515e-39
7.953384e-40
2.505511e-40
7.335720e-41
1.896727e-41
1.326002e+00
6.739982e-01
1.939408e-01
2.456940e-02
3.484521e-04
-5.515463e-05
2.026129e-07
9.072163e-08
1.199974e-07
7.066338e-08
2.712011e-08
1.142989e-08
5.340153e-09
2.724859e-09
1.015063e-09
1.290236e-10
-5.375325e-12
-3.571609e-12
-1.460380e-12
-1.640826e-13
1.504249e-14
5.876619e-15
1.372756e-15
-1.668930e-15
-3.073109e-15
-2.285920e-15
-1.002714e-15
-3.934407e-16
-1.344872e-16
-4.367303e-17
-1.401295e-17
-3.515114e-18
-8.669958e-19
-2.244384e-19
-6.320430e-20
-1.937586e-20
-6.278051e-21
-2.070738e-21
-6.731482e-22
-2.118719e-22
-7.265124e-23
-2.886698e-23
-5.343418e-24
2.803497e-25
2.048073e-25
1.567473e-25
9.445955e-26
5.471266e-26
3.190984e-26
9.806642e-27
-3.220152e-29
-1.478926e-29
-3.619932e-29
-2.234134e-29
-8.447756e-30
-3.209078e-30
-1.423702e-30
-7.135091e-31
-3.579929e-31
-1.682414e-31
-7.297395e-32
-2.941595e-32
-1.076385e-32
-3.476632e-34
-1.092627e-36
1.744881e-35
7.521904e-36
2.370690e-36
7.798748e-37
2.826363e-37
1.077903e-37
3.809995e-38
8.750676e-39
-5.208026e-39
-5.197077e-39
-2.247515e-39
-7.953384e-40
-2.505511e-40
-7.335720e-41
-1.896727e-41
1.041963e+00
9.580374e-01
5.985737e-01
2.397982e-01
5.879446e-02
3.938081e-03
-1.192093e-04
-5.513534e-05
-2.270630e-05
-9.816858e-06
-3.977443e-06
-1.605622e-06
-6.360044e-07
-1.453247e-07
-1.032726e-09
1.026464e-09
7.593221e-10
2.563947e-10
-1.330323e-12
-9.077108e-13
-1.142081e-12
-3.105664e-13
5.682816e-15
1.395792e-16
-2.496261e-16
-1.765985e-15
-3.436177e-16
-3.150680e-16
-2.307524e-16
-1.074799e-16
-1.704497e-17
-3.275587e-18
1.278634e-19
4.490987e-19
2.631914e-19
1.206819e-19
5.400325e-20
2.310663e-20
7.274200e-21
1.637117e-21
-6.819059e-23
-4.083743e-23
-2.584698e-23
-2.479129e-23
-2.322619e-23
-1.461786e-23
-8.795426e-24
-4.159432e-24
-5.229449e-25
1.134767e-26
2.041058e-26
1.170479e-26
5.774145e-27
2.795246e-27
1.325850e-27
6.150249e-28
2.798427e-28
1.251724e-28
5.486213e-29
2.330841e-29
9.880665e-30
2.237969e-30
-3.697718e-32
-1.337902e-32
-9.197578e-33
-3.196131e-33
-9.406784e-34
-2.821369e-34
-9.484193e-35
-3.403851e-35
-1.210379e-35
-3.892337e-36
-9.096198e-37
-1.488783e-38
8.958366e-38
5.750548e-38
2.250754e-38
8.102793e-39
2.795556e-39
8.750683e-40
1.000576e+00
9.994237e-01
8.851460e-01
5.931895e-01
2.706716e-01
8.389893e-02
1.580467e-02
1.280068e-03
4.937169e-04
2.060915e-04
7.545718e-05
9.566265e-06
-8.640846e-07
-6.226469e-07
-3.475495e-07
-1.272201e-07
-4.910072e-09
2.996548e-10
4.153782e-10
1.305628e-10
-1.675603e-12
-1.366720e-12
-1.097570e-12
-5.397087e-13
-2.438746e-13
-1.074016e-13
-3.392419e-14
-3.613897e-15
1.758634e-16
-6.720793e-17
-1.399502e-16
-1.051393e-16
-5.960638e-17
-3.290760e-17
-1.670315e-17
-8.018541e-18
-2.484242e-18
-2.458568e-19
6.542900e-21
8.814557e-21
4.264596e-21
1.455678e-21
4.533131e-22
9.536671e-23
5.597663e-24
-1.350633e-23
-7.723558e-24
-6.296879e-24
-5.739435e-24
-3.339674e-24
-1.809371e-24
-9.386677e-25
-4.807282e-25
-2.382971e-25
-1.147499e-25
-5.359457e-26
-2.427736e-26
-1.064324e-26
-4.546326e-27
-1.428157e-27
-1.062504e-28
1.143104e-29
5.523487e-30
2.113515e-30
7.742341e-31
2.670002e-31
8.831412e-32
2.879477e-32
9.420331e-33
3.078409e-33
9.708851e-34
2.744157e-34
4.907679e-35
9.956342e-37
-2.443035e-36
-1.756846e-36
-8.083474e-37
-3.570651e-37
-1.503300e-37
-6.604175e-38
9.999019e-01
1.000098e+00
9.863050e-01
8.523364e-01
5.808704e-01
2.960129e-01
9.883389e-02
2.193933e-02
6.351332e-04
1.340980e-04
1.395149e-04
9.385861e-05
4.129113e-05
7.329170e-06
-4.160997e-07
-2.850290e-07
-1.955218e-07
-5.026408e-08
3.087115e-10
4.382097e-10
3.334222e-10
1.543858e-10
7.110684e-11
3.336387e-11
1.249277e-11
1.156497e-12
-8.090004e-14
-5.063563e-14
-1.325397e-14
-4.497902e-16
2.665440e-16
1.072304e-16
1.594609e-17
-6.884184e-18
-9.007318e-18
-7.210368e-18
-6.417832e-18
-3.872773e-18
-1.732661e-18
-6.539588e-19
-2.347253e-19
-7.948742e-20
-2.535498e-20
-7.872253e-21
-2.438848e-21
-8.201965e-22
-2.110287e-22
-9.984417e-24
-4.020734e-24
-2.028332e-24
-1.618909e-24
3.217390e-25
-2.567139e-25
-6.581777e-26
-4.324640e-26
-3.475116e-26
-2.128929e-26
-1.022653e-26
-6.156086e-27
-3.742468e-27
-2.038993e-27
-8.740761e-28
-3.510452e-28
-1.363026e-28
-5.089778e-29
-1.830092e-29
-6.365594e-30
-2.149536e-30
-7.046848e-31
-2.226270e-31
-6.584498e-32
-1.820451e-32
-6.234180e-34
1.255504e-34
1.596652e-34
8.910687e-35
4.162456e-35
1.854038e-35
7.637455e-36
2.752338e-36
9.999723e-01
1.000028e+00
9.999551e-01
9.648360e-01
8.295240e-01
5.645398e-01
3.366185e-01
1.267235e-01
3.470649e-02
2.603478e-03
1.740409e-04
7.611145e-05
6.657176e-05
4.780205e-05
1.925089e-05
2.999840e-06
-1.302387e-07
-1.778530e-07
-1.107243e-07
-5.040701e-08
-2.286108e-08
-1.048840e-08
-3.480498e-09
-5.571482e-11
1.268482e-11
1.633012e-11
7.527533e-12
1.505827e-13
-1.078540e-13
-3.183952e-14
-1.224836e-14
-5.500599e-15
-2.443690e-15
-1.127509e-15
-4.297765e-16
-4.996257e-17
2.188022e-18
-2.612850e-18
5.222074e-19
-2.217957e-19
1.474280e-20
-1.526235e-20
-2.015881e-20
1.061882e-20
4.062371e-21
-1.415866e-22
-5.188563e-22
-3.460581e-22
-1.638240e-22
-8.813368e-23
-4.942748e-23
-2.775372e-23
-1.457948e-23
-7.604057e-24
-3.875191e-24
-2.008787e-24
-8.470561e-25
-9.912914e-26
-2.351358e-27
-1.565265e-27
-1.556942e-27
-7.351654e-28
-1.796095e-28
2.085707e-30
1.408057e-29
4.793694e-30
1.249591e-30
3.327727e-31
4.126556e-32
-2.173367e-32
-1.601935e-32
-1.966759e-32
-1.894681e-32
-1.567337e-32
-8.087823e-33
-3.929927e-33
-1.617872e-33
-3.197403e-34
1.096219e-35
4.129646e-36
9.999978e-01
1.000002e+00
1.000030e+00
9.984095e-01
9.484748e-01
8.111124e-01
5.427912e-01
3.577236e-01
1.478862e-01
5.006088e-02
9.847083e-03
3.716810e-04
6.246695e-06
4.069465e-05
3.823584e-05
2.387327e-05
1.188303e-05
4.967377e-06
2.061727e-06
8.209641e-07
1.660089e-07
-6.425044e-09
-8.094491e-09
-5.559073e-09
-1.491809e-09
1.382975e-11
1.141278e-11
1.009165e-11
5.003657e-12
2.188047e-12
9.420967e-13
4.170694e-13
1.709901e-13
3.261127e-14
-1.427748e-15
-4.589644e-16
-2.753660e-16
-1.252117e-16
-5.574199e-17
-2.391182e-17
-1.021870e-17
-4.371306e-18
-1.916207e-18
-6.342107e-19
-7.028620e-20
-1.619720e-21
1.695446e-21
7.868236e-22
8.951123e-23
-2.237604e-23
-2.002251e-23
-8.414437e-24
-3.910801e-24
-3.456465e-24
-2.968874e-24
-1.897261e-24
-1.221773e-24
-1.034117e-24
-5.101455e-25
-1.998529e-25
-8.644595e-26
-4.734824e-26
-2.109669e-26
-8.766439e-27
-3.519285e-27
-1.373885e-27
-5.200774e-28
-1.917338e-28
-6.873382e-29
-1.586352e-29
-1.952109e-31
9.733547e-32
4.206362e-32
-2.677519e-33
-7.517448e-33
-2.790459e-33
-2.142556e-33
-1.721279e-33
-8.863114e-34
-3.320007e-34
1.000000e+00
9.999999e-01
1.000009e+00
9.999991e-01
9.917902e-01
9.348458e-01
7.950025e-01
5.168702e-01
3.729477e-01
1.555578e-01
5.838605e-02
1.586303e-02
2.120508e-03
5.521020e-05
3.150595e-05
2.340310e-05
1.208048e-05
4.993285e-06
2.144325e-06
1.120447e-06
7.997272e-07
3.377335e-07
4.704095e-08
-6.057548e-09
-4.937875e-09
-2.950949e-09
-1.285727e-09
-5.547662e-10
-2.373471e-10
-1.026645e-10
-3.922106e-11
-6.870258e-12
2.923133e-13
1.589519e-13
9.655290e-14
4.243006e-14
1.793223e-14
7.525071e-15
3.192559e-15
1.368131e-15
6.016507e-16
2.219371e-16
3.106116e-17
-1.569156e-18
-9.732195e-19
-3.753234e-19
-6.167333e-20
8.265067e-22
8.448087e-22
-1.880197e-21
-2.968932e-21
-2.234163e-21
-1.074839e-21
-5.080563e-22
-2.159794e-22
-5.656836e-23
-1.849322e-24
-1.028867e-24
-7.214080e-25
-4.808019e-25
-2.392716e-25
-5.048485e-26
-1.950449e-26
-6.488911e-27
-2.057428e-27
-7.071678e-28
-2.824729e-28
-1.797719e-28
-1.011437e-28
-5.605520e-29
-2.636520e-29
-8.924956e-30
-3.295578e-30
-1.447024e-30
-7.156829e-31
-1.479600e-31
2.008434e-34
1.357257e-33
2.037584e-34
-1.499087e-34
9.999998e-01
1.000000e+00
1.000000e+00
1.000026e+00
9.998478e-01
9.850181e-01
9.218262e-01
7.794986e-01
5.212173e-01
3.784144e-01
1.649340e-01
6.659013e-02
2.052515e-02
4.305441e-03
3.852287e-04
8.187545e-05
4.649715e-05
2.653295e-05
1.002151e-05
2.258387e-06
7.889752e-07
6.470386e-07
3.991535e-07
1.917055e-07
8.148382e-08
3.355961e-08
1.369821e-08
5.805708e-09
1.639250e-09
-6.786767e-11
-6.393958e-11
-4.233658e-11
-2.063630e-11
-8.627520e-12
-3.656296e-12
-1.578803e-12
-6.910919e-13
-3.033266e-13
-1.368466e-13
-5.020974e-14
-5.238283e-15
2.550788e-16
2.691163e-16
1.318474e-16
2.327339e-17
-1.256098e-18
-5.064378e-19
-2.127246e-19
-1.173681e-20
-1.953949e-21
-2.599095e-21
-2.265143e-21
-6.651619e-22
-4.622549e-22
-3.718528e-22
-2.409961e-22
-1.099539e-22
-2.140464e-23
-8.239008e-25
-1.611219e-25
-7.434247e-26
-7.126102e-25
-6.977269e-25
-3.572093e-25
-1.628252e-25
-5.728352e-26
-9.291052e-27
-4.121264e-28
-3.347112e-29
-1.117654e-31
-7.467365e-30
-5.741606e-30
-1.968525e-30
-1.054770e-30
-3.981575e-31
-5.841789e-31
-4.185967e-31
-2.051677e-31
-9.425553e-32
-3.608084e-32
9.999998e-01
1.000000e+00
1.000000e+00
1.000013e+00
1.000023e+00
9.988879e-01
9.786714e-01
9.079785e-01
7.697851e-01
5.221180e-01
3.809773e-01
1.771462e-01
7.572348e-02
2.537566e-02
5.888422e-03
4.395349e-04
4.434660e-05
3.192958e-05
2.580202e-05
1.415225e-05
4.093953e-06
6.459589e-07
3.938764e-07
1.898336e-07
8.224335e-08
3.375879e-08
1.183356e-08
5.928737e-09
4.552948e-09
2.560386e-09
1.076446e-09
4.410008e-10
1.774414e-10
7.127826e-11
2.870384e-11
1.149191e-11
4.753537e-12
1.255808e-12
-1.069533e-13
-9.750369e-14
-6.471657e-14
-2.585374e-14
-1.960076e-15
1.858006e-16
1.393125e-16
7.607948e-17
1.368495e-17
-1.998559e-19
-2.592114e-19
-1.577017e-19
-7.376246e-20
-3.415068e-20
-1.434537e-20
-3.166385e-21
-3.900730e-22
-2.252802e-22
-1.789016e-22
-1.162802e-22
-6.193814e-23
-2.700343e-23
-5.089597e-24
-2.072696e-25
-6.135695e-25
-3.494868e-25
-1.735405e-25
-1.214515e-25
-7.180380e-26
-3.369685e-26
-1.291666e-26
-4.822012e-27
-1.724977e-27
-5.935220e-28
-2.118684e-28
-6.579036e-29
-9.714264e-30
-7.378793e-31
-4.284096e-31
-2.068799e-31
-7.438806e-32
-2.141420e-32
9.999999e-01
1.000000e+00
1.000000e+00
1.000003e+00
1.000013e+00
1.000020e+00
9.972475e-01
9.710044e-01
8.969349e-01
7.615487e-01
5.236129e-01
3.740982e-01
1.875092e-01
8.578989e-02
3.195825e-02
8.884792e-03
1.212381e-03
2.483130e-05
2.531192e-05
2.205615e-05
1.614237e-05
6.916266e-06
2.030684e-06
7.950619e-07
4.446879e-07
2.372432e-07
1.001461e-07
2.392203e-08
4.702882e-09
2.306153e-09
9.012138e-10
3.584974e-10
8.826779e-11
3.916145e-11
1.829707e-11
8.244726e-12
4.391772e-12
3.561554e-12
1.961211e-12
4.174341e-13
-6.422970e-14
-5.325381e-14
-3.639331e-14
-1.114711e-14
7.044789e-17
8.711588e-17
7.064417e-17
3.933843e-17
1.852557e-17
8.079599e-18
1.936248e-18
4.953418e-21
-2.222817e-20
-1.765500e-20
-7.259043e-21
-8.824361e-22
-1.506182e-22
-5.425224e-23
-4.362011e-23
-3.162596e-23
-3.506499e-23
-2.036681e-23
-9.695014e-24
-3.551539e-24
-3.146306e-25
-2.877388e-26
-6.427727e-26
-2.938813e-26
-1.174321e-26
-2.013501e-28
-1.057382e-27
-4.379512e-28
-2.946695e-28
-1.440341e-28
-7.151845e-29
-3.030843e-29
-1.292344e-29
-5.997078e-30
-2.299318e-30
-9.523980e-31
1.000000e+00
1.000000e+00
1.000000e+00
1.000000e+00
1.000007e+00
1.000008e+00
1.000015e+00
9.942900e-01
9.638879e-01
8.861412e-01
7.588728e-01
5.119186e-01
3.893524e-01
1.921152e-01
9.238131e-02
3.718735e-02
1.167465e-02
2.284533e-03
6.029103e-05
1.899023e-05
1.625097e-05
1.351109e-05
6.963671e-06
1.861200e-06
4.583423e-07
2.337647e-07
1.906945e-07
1.239393e-07
6.336484e-08
2.964860e-08
1.374954e-08
6.362735e-09
2.935136e-09
1.325354e-09
6.194630e-10
2.016885e-10
2.470530e-11
3.027525e-12
2.569470e-12
1.903510e-12
9.224399e-13
1.744739e-13
-3.428499e-14
-2.977155e-14
-1.757997e-14
-7.626649e-15
-3.395307e-15
-9.499286e-16
-9.841990e-19
1.019092e-17
7.972512e-18
4.324446e-18
1.693137e-18
1.678538e-19
-1.967565e-21
-9.456844e-21
-4.964085e-21
-2.252884e-21
-8.063500e-22
-1.225881e-22
-3.409279e-23
-1.871717e-23
-1.552404e-23
-1.106220e-23
-6.874136e-24
-3.219508e-24
-1.454416e-24
-6.445811e-25
-2.757682e-25
-1.250854e-25
-4.398816e-26
-9.124921e-27
-2.062591e-28
-4.309226e-29
-4.389162e-29
-2.972157e-29
-3.416750e-30
-4.338200e-30
-4.273719e-30
-1.835181e-30
1.000000e+00
1.000000e+00
1.000000e+00
1.000000e+00
1.000002e+00
1.000005e+00
1.000006e+00
9.997595e-01
9.914677e-01
9.548554e-01
8.817621e-01
7.454314e-01
5.159427e-01
3.938236e-01
1.986480e-01
9.890621e-02
4.198464e-02
1.453707e-02
3.634569e-03
3.459359e-04
1.610108e-05
1.605447e-05
1.330449e-05
9.400795e-06
3.896220e-06
7.765245e-07
1.846218e-07
8.057442e-08
4.762164e-08
2.611808e-08
1.381463e-08
4.702554e-09
1.987396e-09
1.200579e-09
6.056878e-10
5.022946e-10
2.798245e-10
6.969751e-11
2.070672e-12
1.152247e-12
1.199600e-12
9.310277e-13
4.596901e-13
1.794058e-13
5.284521e-14
-2.266285e-15
-3.761047e-15
-2.981119e-15
-1.656407e-15
-7.329201e-16
-3.127236e-16
-3.849580e-17
2.505461e-18
1.901713e-18
1.025392e-18
4.360552e-19
9.404852e-20
-1.093526e-21
-1.457851e-21
-9.675428e-22
-3.791465e-22
-9.603214e-23
-1.351980e-23
-1.116681e-23
-4.959887e-24
-3.063429e-24
-1.147022e-24
-5.842885e-25
-2.849574e-25
-1.509423e-25
-8.341050e-26
-4.683404e-26
-2.060135e-26
-7.241814e-27
-2.415133e-27
-8.689467e-28
-3.351635e-28
-7.399303e-29
-5.015185e-30
-1.456500e-30
1.000000e+00
1.000000e+00
1.000000e+00
1.000000e+00
1.000000e+00
1.000001e+00
1.000006e+00
9.999098e-01
9.998732e-01
9.863509e-01
9.508405e-01
8.715441e-01
7.384593e-01
5.161678e-01
3.972169e-01
2.052032e-01
1.052079e-01
4.640242e-02
1.747003e-02
5.029870e-03
5.977890e-04
2.903458e-05
7.753621e-06
8.851365e-06
7.634521e-06
4.888789e-06
2.388021e-06
1.147044e-06
5.469180e-07
2.617673e-07
1.279246e-07
6.175400e-08
3.085712e-08
1.104993e-08
2.082413e-09
4.308598e-10
3.980045e-10
2.992473e-10
1.354767e-10
2.887951e-11
-2.556729e-14
7.076258e-13
2.380207e-14
1.440103e-13
1.196167e-13
6.861716e-14
2.853689e-14
1.073586e-14
3.131023e-15
-2.100433e-16
-3.340272e-16
-3.019918e-16
-1.565949e-16
-4.576471e-17
7.061322e-20
5.732756e-19
4.423574e-19
1.948538e-19
3.396034e-20
-1.407188e-21
-9.249135e-22
-6.209211e-22
-3.233013e-22
-1.572183e-22
-7.276767e-23
-3.379304e-23
-1.571800e-23
-6.953952e-24
-2.274210e-24
-1.989702e-25
-8.456553e-26
-4.694968e-26
-1.920849e-26
-4.473566e-27
-1.373498e-27
-7.490159e-28
-3.553174e-28
-2.472770e-28
-1.182321e-28
-2.874605e-29
1.000000e+00
1.000000e+00
1.000000e+00
1.000000e+00
1.000000e+00
1.000000e+00
1.000003e+00
9.999619e-01
1.000051e+00
9.976347e-01
9.838389e-01
9.447012e-01
8.634856e-01
7.326461e-01
5.157777e-01
4.002242e-01
2.115987e-01
1.117312e-01
5.058792e-02
2.043258e-02
7.063073e-03
1.756274e-03
2.204550e-04
6.655264e-06
6.776014e-06
3.952918e-06
1.776892e-06
8.861818e-07
5.266262e-07
7.533903e-08
6.628720e-08
5.438540e-08
3.016699e-08
2.459168e-08
1.491248e-08
4.758633e-09
4.494738e-10
3.003692e-10
2.304425e-10
1.544665e-10
7.659050e-11
3.486194e-11
1.285616e-11
1.802757e-12
-1.395010e-14
5.647313e-14
5.187685e-15
7.271912e-15
6.373852e-15
3.810524e-15
1.530679e-15
1.781850e-16
-1.506798e-16
-1.334708e-16
-7.934921e-17
-3.404593e-17
-4.730715e-18
1.571844e-19
2.021065e-19
1.076986e-19
4.560467e-20
1.908292e-20
7.859467e-21
3.236346e-21
1.240315e-21
3.197781e-22
-8.515264e-24
-9.657075e-24
-6.706953e-24
-3.761382e-24
-1.599849e-24
-7.164006e-25
-2.840071e-25
-1.165848e-25
-4.385137e-26
-1.094412e-26
-6.298551e-28
-1.968879e-28
-2.245414e-28
-1.701159e-28
1.000000e+00
1.000000e+00
1.000000e+00
1.000000e+00
1.000000e+00
1.000000e+00
1.000001e+00
9.999843e-01
9.999919e-01
9.999070e-01
9.962969e-01
9.802604e-01
9.386752e-01
8.558939e-01
7.276472e-01
5.149970e-01
4.022855e-01
2.167332e-01
1.190076e-01
5.374012e-02
2.143137e-02
7.366715e-03
2.241657e-03
7.145912e-04
3.180969e-04
1.415351e-04
6.272267e-05
2.812147e-05
1.272202e-05
5.741767e-06
2.675469e-06
8.531205e-07
1.071537e-07
2.539423e-08
1.909005e-08
1.469465e-08
7.706942e-09
2.017672e-09
2.378410e-10
8.300576e-11
7.009469e-11
3.234546e-11
2.628525e-11
1.649884e-11
7.548607e-12
3.387748e-12
1.271382e-12
1.550582e-13
-1.006879e-14
4.218434e-16
1.333834e-15
1.138010e-15
5.773977e-16
2.055604e-16
-1.017202e-17
-3.690253e-17
-3.468147e-17
-1.820746e-17
-8.007238e-18
-3.454495e-18
-1.454603e-18
-6.149816e-19
-2.266395e-19
-3.778506e-20
2.491975e-21
1.175765e-21
6.748287e-22
2.867539e-22
1.238371e-22
5.366823e-23
2.327853e-23
9.365259e-24
2.279634e-24
-9.805899e-26
-6.141886e-26
-3.575956e-26
-1.916156e-26
-3.958673e-27
-2.596039e-28
-1.695599e-28
1.000000e+00
1.000000e+00
1.000000e+00
1.000000e+00
1.000000e+00
1.000000e+00
1.000001e+00
9.999935e-01
9.999928e-01
9.999919e-01
9.996697e-01
9.947641e-01
9.763844e-01
9.334398e-01
8.475821e-01
7.249795e-01
5.158264e-01
4.044489e-01
2.192319e-01
1.311923e-01
6.156197e-02
2.467835e-02
8.102994e-03
1.898207e-03
2.974936e-04
1.279348e-04
5.152315e-05
2.563685e-05
1.277987e-05
5.106672e-06
2.705418e-06
2.180570e-06
1.197540e-06
2.995063e-07
2.019532e-08
1.202714e-08
1.108026e-08
8.366159e-09
4.263052e-09
2.032446e-09
7.921818e-10
1.615766e-10
1.890713e-11
7.908591e-12
4.280805e-12
3.394756e-12
2.561886e-12
1.640094e-12
6.714586e-13
1.385479e-13
-3.068707e-15
-9.856067e-16
-6.672162e-16
5.994121e-18
8.826834e-17
6.133538e-17
1.320577e-17
-4.243606e-19
-2.368362e-18
-1.904701e-18
-1.271820e-18
-6.293961e-19
-3.415119e-19
-2.408728e-19
-1.240868e-19
-5.304207e-20
-2.268019e-20
-9.712535e-21
-4.232956e-21
-1.507010e-21
-1.984639e-22
1.234566e-23
9.307399e-24
5.366373e-24
1.699349e-24
-2.108004e-26
-1.975833e-26
-1.411161e-26
-6.833438e-27
-2.751520e-27
1.000000e+00
1.000000e+00
1.000000e+00
1.000000e+00
1.000000e+00
1.000000e+00
1.000000e+00
9.999984e-01
9.999947e-01
9.999953e-01
9.999891e-01
9.992686e-01
9.929660e-01
9.723690e-01
9.301618e-01
8.318611e-01
7.228238e-01
5.194711e-01
4.070933e-01
2.223023e-01
1.368662e-01
6.864039e-02
3.019171e-02
1.138038e-02
3.483749e-03
9.663123e-04
4.684930e-04
2.276548e-04
1.182649e-04
4.146736e-05
7.965438e-06
2.184941e-06
1.796158e-06
1.335876e-06
6.014286e-07
1.275431e-07
7.240723e-09
7.706941e-09
3.134190e-09
1.833471e-09
1.542952e-09
1.007661e-09
4.920353e-10
2.327575e-10
9.205009e-11
1.679091e-11
1.894679e-12
1.378311e-12
1.138462e-12
7.625136e-13
4.187632e-13
1.486300e-13
1.885337e-14
-5.563317e-16
-1.638013e-16
-3.612857e-17
1.008188e-17
-3.826351e-17
-1.733372e-17
-8.440293e-18
-4.049907e-18
-2.121906e-18
-8.987994e-19
-2.502700e-19
-1.183071e-19
-5.110498e-20
-2.338044e-20
-9.367417e-21
-4.153184e-21
-2.946955e-21
-1.872910e-21
-7.985210e-22
-1.626769e-22
5.695483e-24
3.795733e-24
2.601821e-24
1.182734e-24
5.471778e-25
2.391940e-25
7.303398e-26
1.000000e+00
1.000000e+00
1.000000e+00
1.000000e+00
1.000000e+00
1.000000e+00
1.000000e+00
1.000000e+00
9.999974e-01
9.999960e-01
9.999971e-01
9.999436e-01
9.989811e-01
9.901794e-01
9.711444e-01
9.209722e-01
8.231277e-01
7.195258e-01
5.218086e-01
4.078299e-01
2.281357e-01
1.366543e-01
6.954073e-02
3.128017e-02
1.176943e-02
3.397247e-03
5.662746e-04
2.357583e-04
1.228872e-04
9.936219e-05
5.688643e-05
1.645129e-05
1.944893e-06
1.249671e-06
1.012639e-06
6.768846e-07
3.363666e-07
1.564860e-07
5.975325e-08
1.024947e-08
6.410078e-10
9.587309e-10
5.031332e-10
2.203595e-10
1.798675e-10
1.170393e-10
5.261153e-11
1.360121e-11
1.166232e-12
3.863028e-13
3.875845e-13
3.188117e-13
1.943753e-13
8.926172e-14
3.655074e-14
1.510057e-14
6.445180e-15
2.847732e-15
1.242561e-15
5.644846e-16
1.745570e-16
2.097753e-18
-1.355689e-18
-1.295251e-18
-6.921256e-19
-3.604939e-19
-1.885958e-19
-9.211198e-20
-2.849498e-20
-3.091370e-21
-1.640644e-21
-1.370947e-21
-8.843143e-22
-4.367905e-22
-1.786369e-22
-7.263757e-23
-2.614503e-23
-3.925816e-24
2.277599e-25
1.898476e-25
1.000000e+00
1.000000e+00
1.000000e+00
1.000000e+00
1.000000e+00
1.000000e+00
1.000000e+00
1.000000e+00
9.999994e-01
9.999973e-01
9.999977e-01
9.999746e-01
9.999710e-01
9.974958e-01
9.896621e-01
9.671618e-01
9.134727e-01
8.160163e-01
7.166019e-01
5.214843e-01
4.107749e-01
2.332366e-01
1.463854e-01
7.665905e-02
3.647017e-02
1.523287e-02
5.255378e-03
1.345827e-03
2.984301e-04
1.043533e-04
8.218885e-05
6.160282e-05
2.991728e-05
7.817494e-06
9.668523e-07
5.587116e-07
3.327746e-07
1.505680e-07
1.179595e-07
7.457584e-08
3.666109e-08
1.694923e-08
6.513738e-09
1.049179e-09
1.852348e-10
1.132877e-10
6.874808e-11
5.562257e-11
3.072987e-11
1.164346e-11
1.814900e-12
2.859597e-13
4.723210e-14
7.889775e-14
2.504608e-14
3.718886e-15
3.640907e-15
2.543557e-15
1.153327e-15
5.557816e-16
4.567251e-16
2.738118e-16
1.210244e-16
5.281274e-17
2.332979e-17
8.363471e-18
5.610454e-19
-8.929233e-20
-9.088670e-20
-5.641056e-20
-1.442978e-20
-1.388607e-21
-7.446374e-22
-2.076310e-22
-1.321823e-22
-4.856624e-23
-4.703122e-23
-2.874179e-23
-1.421244e-23
-5.269400e-24
1.000000e+00
1.000000e+00
1.000000e+00
1.000000e+00
1.000000e+00
1.000000e+00
1.000000e+00
1.000000e+00
1.000000e+00
9.999986e-01
9.999988e-01
9.999879e-01
9.999881e-01
9.996240e-01
9.969431e-01
9.879555e-01
9.629714e-01
9.062150e-01
8.112269e-01
7.119457e-01
5.210656e-01
4.143937e-01
2.386067e-01
1.469574e-01
7.676458e-02
3.697070e-02
1.603927e-02
5.932146e-03
1.817031e-03
4.362434e-04
9.212196e-05
6.045541e-05
4.656892e-05
3.076051e-05
1.449523e-05
5.676208e-06
2.426278e-06
7.213031e-07
1.249762e-07
5.153289e-08
3.205430e-08
1.728268e-08
1.319884e-08
8.206150e-09
4.135496e-09
1.387919e-09
1.532367e-10
3.165877e-11
3.062114e-11
2.378763e-11
1.502805e-11
7.111397e-12
3.303126e-12
1.493398e-12
6.826096e-13
3.044924e-13
1.332772e-13
6.234731e-14
2.095934e-14
1.877665e-15
4.780554e-16
1.471230e-16
9.537074e-17
4.918414e-17
2.273977e-17
1.693508e-17
1.151807e-17
3.665007e-18
3.694236e-20
-6.440021e-20
-5.831465e-20
-3.104040e-20
-1.419432e-20
-6.650913e-21
-2.717449e-21
-7.537314e-22
-6.491413e-23
-1.995102e-23
-8.286645e-24
-5.317343e-24
1.000000e+00
1.000000e+00
1.000000e+00
1.000000e+00
1.000000e+00
1.000000e+00
1.000000e+00
1.000000e+00
1.000000e+00
9.999994e-01
9.999996e-01
9.999941e-01
9.999920e-01
9.999882e-01
9.993520e-01
9.962112e-01
9.859896e-01
9.586088e-01
8.992994e-01
8.088154e-01
7.067125e-01
5.196979e-01
4.154952e-01
2.429961e-01
1.591431e-01
8.341338e-02
4.028286e-02
1.765413e-02
6.895520e-03
2.333930e-03
6.643032e-04
1.636871e-04
5.999367e-05
3.712381e-05
2.306678e-05
1.076833e-05
4.116638e-06
2.658350e-06
1.477476e-06
6.997855e-07
2.802562e-07
6.263049e-08
1.425996e-08
8.098660e-09
4.253171e-09
3.354974e-09
2.085119e-09
8.264290e-10
1.368940e-10
1.259366e-11
7.004987e-12
6.873005e-12
2.034381e-12
1.006016e-12
5.219974e-13
2.313518e-13
8.712819e-14
5.925570e-14
5.065460e-14
3.092210e-14
1.433409e-14
6.339294e-15
2.953457e-15
1.141676e-15
1.393794e-16
1.117070e-17
1.105839e-17
9.239182e-18
5.346105e-18
2.316966e-18
9.744621e-19
4.234189e-19
1.220267e-19
-5.125300e-21
-4.456859e-21
-2.978289e-21
-1.571554e-21
-6.893266e-22
-3.107671e-22
-1.218606e-22
1.000000e+00
1.000000e+00
1.000000e+00
1.000000e+00
1.000000e+00
1.000000e+00
1.000000e+00
1.000000e+00
1.000000e+00
9.999998e-01
9.999998e-01
9.999981e-01
9.999942e-01
9.999941e-01
9.999333e-01
9.991106e-01
9.953230e-01
9.837828e-01
9.546934e-01
8.885077e-01
8.115348e-01
7.049467e-01
5.185176e-01
4.165603e-01
2.444965e-01
1.649247e-01
8.851348e-02
4.340852e-02
1.931769e-02
7.738900e-03
2.736624e-03
8.286858e-04
2.266337e-04
7.652546e-05
4.282112e-05
2.832534e-05
1.340306e-05
3.393891e-06
1.316606e-06
6.542728e-07
5.417036e-07
3.513283e-07
1.865476e-07
6.487077e-08
9.554205e-09
2.774678e-09
2.008242e-09
1.622782e-09
1.034196e-09
5.064619e-10
2.305746e-10
1.066762e-10
4.995707e-11
2.302968e-11
1.046023e-11
4.919572e-12
1.666616e-12
1.918971e-13
2.309063e-14
1.482466e-14
8.638911e-15
5.910639e-15
2.870355e-15
2.253034e-15
1.568219e-15
4.925029e-16
3.407229e-17
7.625429e-18
5.001832e-18
2.148620e-18
8.829032e-19
4.352175e-19
3.303648e-19
1.922899e-19
8.223717e-20
3.394027e-20
1.363220e-20
5.424621e-21
2.136245e-21
8.141076e-22
1.000000e+00
1.000000e+00
1.000000e+00
1.000000e+00
1.000000e+00
1.000000e+00
1.000000e+00
1.000000e+00
1.000000e+00
9.999999e-01
9.999998e-01
9.999998e-01
9.999968e-01
9.999957e-01
9.999980e-01
9.998343e-01
9.989822e-01
9.937629e-01
9.846646e-01
9.403137e-01
8.937484e-01
7.989714e-01
7.032692e-01
5.214728e-01
4.171083e-01
2.478212e-01
1.704821e-01
9.365142e-02
4.705022e-02
2.142327e-02
8.820063e-03
3.226658e-03
1.018685e-03
2.745944e-04
7.578880e-05
3.960600e-05
3.018261e-05
1.984489e-05
9.319751e-06
2.937015e-06
5.496272e-07
3.135847e-07
1.868126e-07
1.501473e-07
9.626422e-08
3.964396e-08
8.784864e-09
1.694834e-09
7.732618e-10
4.136668e-10
1.562798e-10
6.426161e-11
4.870886e-11
2.335875e-11
7.858516e-12
4.978731e-12
4.044578e-12
2.425175e-12
1.122110e-12
5.116956e-13
2.405195e-13
9.498100e-14
1.317527e-14
2.452710e-15
1.577081e-15
1.255576e-15
7.506538e-16
3.348579e-16
1.493384e-16
7.015472e-17
2.285332e-17
1.792646e-18
6.400468e-20
1.398200e-19
7.788830e-20
-1.213785e-20
3.045043e-21
-1.758164e-21
-1.198334e-21
-6.982107e-22
1.000000e+00
1.000000e+00
1.000000e+00
1.000000e+00
1.000000e+00
1.000000e+00
1.000000e+00
1.000000e+00
1.000000e+00
1.000000e+00
9.999999e-01
9.999999e-01
9.999991e-01
9.999968e-01
9.999969e-01
9.999267e-01
9.999868e-01
9.968634e-01
9.965436e-01
9.754198e-01
9.436387e-01
8.872054e-01
7.907014e-01
7.010477e-01
5.219142e-01
4.173855e-01
2.502980e-01
1.743676e-01
9.760811e-02
5.029385e-02
2.346851e-02
9.950734e-03
3.811887e-03
1.291720e-03
3.724816e-04
8.542742e-05
2.926248e-05
2.015043e-05
1.466209e-05
9.695035e-06
4.937298e-06
1.871018e-06
5.339920e-07
1.536517e-07
9.252279e-08
7.379745e-08
4.835268e-08
2.458152e-08
1.180261e-08
5.368478e-09
2.605633e-09
1.223031e-09
5.602298e-10
2.824601e-10
1.001632e-10
1.363085e-11
2.450592e-12
1.499717e-12
1.115431e-12
4.582522e-13
2.343274e-13
1.815808e-13
1.286590e-13
4.362042e-14
4.497423e-15
1.265366e-15
1.887097e-16
1.148523e-16
1.435399e-16
7.309988e-17
5.673774e-17
3.380723e-17
1.521888e-17
6.775484e-18
3.045871e-18
1.366907e-18
6.006177e-19
2.593959e-19
1.124328e-19
4.570618e-20
1.000000e+00
1.000000e+00
1.000000e+00
1.000000e+00
1.000000e+00
1.000000e+00
1.000000e+00
1.000000e+00
1.000000e+00
1.000000e+00
1.000000e+00
9.999999e-01
9.999999e-01
9.999983e-01
9.999989e-01
9.999658e-01
9.999906e-01
9.986229e-01
9.986418e-01
9.924295e-01
9.748455e-01
9.411835e-01
8.823036e-01
7.836522e-01
6.994315e-01
5.244333e-01
4.206011e-01
2.545842e-01
1.790027e-01
1.014180e-01
5.353151e-02
2.547426e-02
1.099754e-02
4.335147e-03
1.566565e-03
5.144213e-04
1.498460e-04
4.628580e-05
1.940741e-05
1.181967e-05
7.689234e-06
4.122221e-06
2.253882e-06
1.137326e-06
4.084661e-07
8.017367e-08
4.700476e-08
2.262816e-08
1.135828e-08
5.541544e-09
2.274787e-09
1.229863e-09
5.051419e-10
2.791397e-10
2.282872e-10
1.429493e-10
6.786957e-11
3.130099e-11
1.474375e-11
5.882023e-12
9.353885e-13
1.575388e-13
1.213938e-13
1.010014e-13
6.243892e-14
2.916948e-14
1.321681e-14
6.377972e-15
2.077439e-15
2.429436e-16
4.891989e-17
2.681268e-17
1.457438e-17
4.699307e-18
8.257774e-19
1.185005e-18
3.269808e-19
2.537361e-19
1.003941e-19
4.601154e-20
1.000000e+00
1.000000e+00
1.000000e+00
1.000000e+00
1.000000e+00
1.000000e+00
1.000000e+00
1.000000e+00
1.000000e+00
1.000000e+00
1.000000e+00
1.000000e+00
1.000000e+00
9.999992e-01
9.999997e-01
9.999845e-01
9.999985e-01
9.993864e-01
9.993651e-01
9.979343e-01
9.904591e-01
9.730060e-01
9.372379e-01
8.796909e-01
7.715110e-01
6.918074e-01
5.232685e-01
4.221822e-01
2.585584e-01
1.839933e-01
1.048285e-01
5.700256e-02
2.782948e-02
1.220300e-02
4.830359e-03
1.743085e-03
5.786173e-04
1.838021e-04
6.110717e-05
2.396763e-05
1.255266e-05
7.640045e-06
3.539171e-06
1.618021e-06
1.042167e-06
6.542626e-07
3.271158e-07
1.654882e-07
8.612642e-08
4.195896e-08
2.069842e-08
1.054437e-08
4.208378e-09
9.100742e-10
1.648248e-10
1.395731e-10
6.823886e-11
2.814990e-11
1.434610e-11
1.129450e-11
7.875301e-12
2.905658e-12
4.860295e-13
7.201270e-14
5.706848e-14
2.245799e-14
9.081703e-15
6.118048e-15
5.070599e-15
3.023015e-15
1.360695e-15
6.112062e-16
2.782107e-16
1.277138e-16
5.951372e-17
2.716743e-17
1.221850e-17
5.689245e-18
1.814889e-18
2.389222e-19
1.000000e+00
1.000000e+00
1.000000e+00
1.000000e+00
1.000000e+00
1.000000e+00
1.000000e+00
1.000000e+00
1.000000e+00
1.000000e+00
1.000000e+00
1.000000e+00
1.000000e+00
9.999996e-01
9.999999e-01
9.999930e-01
9.999986e-01
9.997738e-01
9.995609e-01
9.994478e-01
9.969501e-01
9.892295e-01
9.704403e-01
9.337938e-01
8.782845e-01
7.661931e-01
6.869153e-01
5.219711e-01
4.232756e-01
2.619462e-01
1.899320e-01
1.067661e-01
5.991533e-02
3.035619e-02
1.379411e-02
5.614146e-03
2.049584e-03
6.796585e-04
2.145145e-04
7.175648e-05
2.726278e-05
1.362235e-05
9.758503e-06
4.373982e-06
1.422311e-06
6.395074e-07
3.312896e-07
1.469370e-07
8.643309e-08
4.224199e-08
1.877121e-08
1.063414e-08
8.410451e-09
5.425358e-09
2.820792e-09
1.320490e-09
6.556940e-10
2.707551e-10
5.314783e-11
1.055982e-11
7.208990e-12
5.971756e-12
3.815018e-12
1.849409e-12
8.640914e-13
4.163139e-13
1.449419e-13
1.901750e-14
2.514614e-15
2.206630e-15
1.281465e-15
4.235087e-16
2.727296e-16
6.125057e-17
3.226266e-17
1.632735e-17
1.230831e-17
5.712212e-18
4.692848e-18
2.375927e-18