# vtk DataFile Version 3.0
MUSCL
ASCII
DATASET STRUCTURED_POINTS
DIMENSIONS 80 80 1
ORIGIN 0 0 0
SPACING 0.0125 0.0125 1
POINT_DATA 6400
SCALARS Temperature double 1
LOOKUP_TABLE default
0.000000e+00
-6.740009e-01
-1.939451e-01
-2.456369e-02
-3.477121e-04
5.566123e-05
1.541080e-06
-3.987417e-07
-1.814607e-07
-1.056692e-07
-5.458839e-08
-2.440240e-08
-1.013180e-08
-4.132835e-09
-1.530342e-09
-3.124808e-10
-2.560468e-11
1.574050e-12
6.553611e-13
2.040733e-13
-6.557179e-17
-2.445910e-15
2.213582e-14
1.513401e-14
7.190695e-15
3.296871e-15
1.467886e-15
6.347159e-16
2.699225e-16
1.143905e-16
4.374373e-17
1.461405e-17
3.116163e-18
5.120448e-19
6.876588e-20
7.958803e-21
9.308994e-22
1.619619e-22
5.591122e-23
2.907275e-23
1.430884e-23
4.467258e-25
-1.463256e-26
-1.404877e-26
-1.918124e-26
-1.687052e-26
-1.132606e-26
-8.184524e-27
-5.632447e-27
-3.554409e-27
-2.045820e-27
-1.085602e-27
-5.403413e-28
-2.563738e-28
-1.203060e-28
-5.713625e-30
-1.230415e-31
1.213654e-31
1.026925e-31
4.404735e-32
1.500689e-32
5.522872e-33
1.123364e-34
-2.391251e-35
-2.072984e-35
-7.258524e-36
-2.121961e-36
-5.689206e-37
-1.939974e-37
-1.252470e-37
-9.551691e-38
-5.652569e-38
-2.458393e-38
-5.092559e-39
2.096710e-40
3.878692e-40
2.878785e-40
1.574101e-40
7.814980e-41
4.563678e-41
1.325999e+00
6.740009e-01
1.939451e-01
2.456369e-02
3.477121e-04
-5.566123e-05
-1.541080e-06
3.987417e-07
1.814607e-07
1.056692e-07
5.458839e-08
2.440240e-08
1.013180e-08
4.132835e-09
1.530342e-09
3.124808e-10
2.560468e-11
-1.574050e-12
-6.553611e-13
-2.040733e-13
6.557179e-17
2.445910e-15
-2.213582e-14
-1.513401e-14
-7.190695e-15
-3.296871e-15
-1.467886e-15
-6.347159e-16
-2.699225e-16
-1.143905e-16
-4.374373e-17
-1.461405e-17
-3.116163e-18
-5.120448e-19
-6.876588e-20
-7.958803e-21
-9.308994e-22
-1.619619e-22
-5.591122e-23
-2.907275e-23
-1.430884e-23
-4.467258e-25
1.463256e-26
1.404877e-26
1.918124e-26
1.687052e-26
1.132606e-26
8.184524e-27
5.632447e-27
3.554409e-27
2.045820e-27
1.085602e-27
5.403413e-28
2.563738e-28
1.203060e-28
5.713625e-30
1.230415e-31
-1.213654e-31
-1.026925e-31
-4.404735e-32
-1.500689e-32
-5.522872e-33
-1.123364e-34
2.391251e-35
2.072984e-35
7.258524e-36
2.121961e-36
5.689206e-37
1.939974e-37
1.252470e-37
9.551691e-38
5.652569e-38
2.458393e-38
5.092559e-39
-2.096710e-40
-3.878692e-40
-2.878785e-40
-1.574101e-40
-7.814980e-41
-4.563678e-41
1.041913e+00
9.580874e-01
5.984958e-01
2.397488e-01
5.879945e-02
3.936842e-03
-1.198833e-04
-6.916913e-05
-3.081572e-05
-1.329481e-05
-5.574101e-06
-2.291398e-06
-9.393539e-07
-2.386562e-07
-2.950066e-09
2.480230e-09
1.048111e-09
2.665415e-10
2.007518e-11
-6.657416e-13
-6.400490e-13
-3.232490e-13
-2.878354e-14
1.391194e-15
1.740082e-16
-7.943026e-16
-9.015319e-16
-3.916888e-16
-1.828150e-16
-1.037652e-16
-3.805328e-17
3.688873e-18
-8.468096e-19
8.140324e-19
4.473480e-19
1.542391e-19
5.585158e-20
2.179364e-20
9.470365e-21
3.449408e-21
2.950359e-22
-1.288940e-23
-1.146668e-23
-3.978532e-24
-2.189211e-24
-1.628486e-24
-1.242188e-24
-8.778789e-25
-5.701444e-25
-3.445219e-25
-1.956649e-25
-1.011522e-25
-5.011006e-26
-1.553691e-26
2.675639e-29
2.617503e-28
1.100828e-28
4.046768e-29
1.830562e-29
8.133776e-30
3.100276e-30
5.577716e-31
-1.128780e-33
-6.227476e-33
-3.589078e-33
-1.394947e-33
-4.785799e-34
-1.553881e-34
-5.249180e-35
-2.124891e-35
-1.013379e-35
-4.627384e-36
-1.600311e-36
-2.480814e-37
1.041225e-38
4.026461e-38
2.634906e-38
1.294774e-38
6.125921e-39
3.418050e-39
9.995465e-01
1.000454e+00
8.866005e-01
5.935313e-01
2.707106e-01
8.405795e-02
1.553237e-02
1.145188e-03
4.573300e-04
1.967373e-04
7.184988e-05
8.423221e-06
-7.579967e-07
-7.965468e-07
-4.630494e-07
-1.675290e-07
-1.658249e-08
3.800970e-10
2.582200e-10
9.668017e-12
-3.523687e-12
-9.212421e-13
-6.055009e-13
-4.242345e-13
-2.141412e-13
-9.858498e-14
-3.873276e-14
-1.312629e-14
-6.078819e-15
-2.729145e-15
-1.107972e-15
-4.880792e-16
-1.530025e-16
-5.343940e-17
-2.073802e-17
-8.839978e-18
-4.035391e-18
-1.943833e-18
-4.766799e-19
2.035462e-21
2.698895e-21
2.137585e-21
1.026084e-21
4.466063e-22
1.776773e-22
6.485622e-23
2.094424e-23
4.954872e-24
7.350829e-25
-1.253030e-25
-1.788832e-25
-1.304034e-25
-8.297291e-26
-5.410453e-26
-3.126834e-26
-1.485326e-26
-6.964241e-27
-3.189007e-27
-1.424133e-27
-3.339470e-28
4.135793e-30
2.258819e-30
1.550109e-30
6.867389e-31
2.641135e-31
9.108530e-32
3.015829e-32
1.026100e-32
3.814762e-33
1.543346e-33
6.227308e-34
2.261659e-34
6.250404e-35
3.418286e-36
-3.293960e-36
-3.155121e-36
-1.610491e-36
-7.671483e-37
-3.422644e-37
-1.841394e-37
9.999191e-01
1.000081e+00
9.863959e-01
8.524493e-01
5.808429e-01
2.961848e-01
9.853029e-02
2.174357e-02
5.840521e-04
1.742528e-04
1.295964e-04
8.632584e-05
4.027538e-05
7.165778e-06
-2.798002e-07
-3.376394e-07
-2.250287e-07
-5.533497e-08
-1.013861e-10
9.084571e-10
3.918764e-10
1.606069e-10
7.525288e-11
3.509339e-11
1.357661e-11
2.284800e-12
1.582846e-14
-2.670818e-14
-6.709587e-15
-2.489152e-15
-1.052099e-15
-5.041431e-16
-1.304844e-16
2.780075e-17
4.627104e-17
2.953666e-17
4.563068e-18
-2.034063e-18
-1.653555e-18
-9.304608e-19
-4.078878e-19
-1.727846e-19
-7.054513e-20
-2.802964e-20
-1.092265e-20
-4.215901e-21
-1.535475e-21
-5.334680e-22
-1.641747e-22
-3.895684e-23
-2.578271e-24
1.316344e-24
1.360500e-25
4.753474e-27
-6.070608e-27
-2.310373e-27
-2.279074e-27
-2.233700e-27
-9.645192e-28
-1.062476e-27
-6.664586e-28
-2.881950e-28
-1.179413e-28
-4.570418e-29
-1.685774e-29
-6.020498e-30
-2.114837e-30
-7.435968e-31
-2.625318e-31
-9.133538e-32
-3.043130e-32
-9.082256e-33
-1.756874e-33
-1.689630e-35
1.704888e-34
1.254469e-34
6.045245e-35
2.901676e-35
1.464290e-35
5.527027e-36
9.999751e-01
1.000025e+00
9.998245e-01
9.650984e-01
8.295104e-01
5.645808e-01
3.365429e-01
1.266640e-01
3.473259e-02
2.557486e-03
1.405634e-04
6.468206e-05
5.744545e-05
4.248272e-05
1.845326e-05
2.119549e-06
-3.373978e-07
-2.065699e-07
-1.234831e-07
-5.484631e-08
-2.396664e-08
-1.053506e-08
-3.702169e-09
-2.582494e-10
3.402041e-11
1.539617e-11
4.064146e-12
-3.398571e-14
-8.658494e-14
-3.269510e-14
-1.325722e-14
-5.504765e-15
-1.937613e-15
-6.214161e-16
-1.659722e-16
1.920453e-17
2.355855e-17
1.628349e-17
7.080430e-18
3.067031e-18
1.370846e-18
6.281673e-19
2.965793e-19
1.127859e-19
1.706676e-20
-4.865421e-21
-2.569700e-21
-1.227542e-21
-5.663664e-22
-2.528421e-22
-1.113583e-22
-4.281384e-23
-1.568695e-23
-5.732935e-24
-2.143076e-24
-8.523872e-25
-3.748096e-25
-1.505247e-25
-3.469875e-26
-1.522493e-27
-3.981517e-28
-2.614315e-28
2.148422e-28
1.079506e-28
-3.732293e-30
-4.779665e-30
-1.218108e-30
-1.130104e-31
4.395094e-33
-7.860776e-33
-3.794695e-33
1.690659e-33
9.541984e-35
-6.903470e-33
-6.264252e-33
-3.187832e-33
-1.553812e-33
-4.600866e-34
8.543304e-36
9.372298e-36
9.999960e-01
1.000004e+00
1.000038e+00
9.983995e-01
9.484599e-01
8.111527e-01
5.427409e-01
3.576846e-01
1.479076e-01
5.007240e-02
9.821507e-03
2.414801e-04
2.687115e-05
3.764158e-05
3.468744e-05
2.232334e-05
1.077387e-05
4.657779e-06
1.992825e-06
7.626683e-07
1.262266e-07
-1.137589e-08
-8.267227e-09
-5.362038e-09
-1.477982e-09
2.247124e-11
2.238402e-11
1.245969e-11
4.795612e-12
1.891751e-12
7.532939e-13
3.075832e-13
1.001459e-13
2.969408e-14
1.784480e-15
-2.548696e-17
-5.808733e-17
-2.358045e-17
-1.084261e-17
-4.622040e-18
-1.456841e-18
-1.549166e-19
2.293475e-19
1.432029e-19
1.355449e-19
7.916082e-20
3.720693e-20
1.657659e-20
7.085427e-21
2.927584e-21
1.164361e-21
4.424878e-22
1.602256e-22
5.511295e-23
1.764746e-23
5.657146e-24
1.244937e-24
9.425818e-26
-5.941665e-26
-7.072963e-26
-3.901938e-26
-1.769974e-26
-8.135541e-27
-3.717464e-27
-1.700698e-27
-7.727764e-28
-3.387119e-28
-1.394139e-28
-5.225695e-29
-1.731172e-29
-5.075968e-30
-1.112724e-30
-7.885969e-34
4.687968e-33
3.216573e-33
-4.379762e-34
-1.694448e-33
-1.505651e-33
-9.327613e-34
-4.335308e-34
9.999996e-01
1.000000e+00
1.000007e+00
1.000042e+00
9.920515e-01
9.348668e-01
7.949546e-01
5.168263e-01
3.729551e-01
1.555377e-01
5.838820e-02
1.595026e-02
2.051433e-03
1.118299e-04
3.671381e-05
2.187089e-05
1.106902e-05
4.333617e-06
1.883181e-06
1.225199e-06
8.654686e-07
3.431457e-07
4.639855e-08
-6.636885e-09
-4.702559e-09
-2.729753e-09
-1.190178e-09
-5.001147e-10
-2.091145e-10
-8.900283e-11
-3.061982e-11
-4.041008e-12
3.738582e-14
1.261117e-13
7.122277e-14
3.079395e-14
1.346939e-14
5.959203e-15
2.654705e-15
1.182798e-15
5.347627e-16
2.339086e-16
5.634214e-17
6.490914e-19
-2.169280e-20
-3.347159e-20
-1.891044e-20
-1.090127e-20
-6.536925e-21
-3.132236e-21
-1.145071e-21
-3.198771e-22
-8.237085e-23
-1.910341e-23
3.193605e-24
6.510251e-24
3.216973e-24
1.157435e-24
1.983991e-25
3.981200e-26
1.883356e-26
8.402582e-27
2.678954e-27
1.883061e-28
-7.463059e-28
-7.374293e-28
-3.455244e-28
-1.321235e-28
-8.048850e-29
-3.841138e-29
-1.666841e-29
-6.350246e-30
-2.482868e-30
-1.509563e-30
-8.666261e-31
-7.808993e-32
6.985833e-33
2.490083e-33
3.551045e-34
-1.430412e-34
9.999994e-01
1.000001e+00
1.000001e+00
1.000029e+00
9.998513e-01
9.850017e-01
9.217934e-01
7.794851e-01
5.212667e-01
3.784149e-01
1.650654e-01
6.649058e-02
2.034492e-02
4.150581e-03
3.745871e-04
8.304854e-05
4.560650e-05
2.513661e-05
9.386918e-06
1.949770e-06
8.589684e-07
6.774342e-07
4.109516e-07
2.006740e-07
8.256842e-08
3.387070e-08
1.422939e-08
5.769095e-09
1.101514e-09
-6.142400e-11
-6.481974e-11
-4.276186e-11
-2.046789e-11
-8.688100e-12
-3.695222e-12
-1.578267e-12
-6.787562e-13
-2.922795e-13
-1.264952e-13
-5.655312e-14
-1.145528e-14
2.854712e-16
1.839832e-16
1.035172e-16
1.916410e-17
-6.895359e-19
-8.472650e-20
2.195258e-19
2.391055e-19
1.662282e-19
8.811038e-20
3.373860e-20
6.749983e-21
2.111538e-22
-4.100186e-23
-5.675997e-23
-5.028191e-23
-2.019692e-23
-6.223178e-24
-1.581651e-24
-2.437688e-24
-1.436918e-24
-6.615277e-25
-2.985728e-25
-1.325342e-25
-4.486109e-26
-1.093420e-26
-2.226904e-28
7.224042e-29
3.079107e-29
7.032210e-30
-2.112674e-31
4.080690e-31
-1.083109e-30
-7.640370e-31
-9.107426e-31
-6.971143e-31
-3.324564e-31
-1.535832e-31
-5.973774e-32
9.999997e-01
1.000000e+00
1.000000e+00
1.000010e+00
1.000030e+00
9.988676e-01
9.786366e-01
9.079680e-01
7.698366e-01
5.221652e-01
3.811268e-01
1.770291e-01
7.552656e-02
2.528016e-02
5.869098e-03
4.345572e-04
5.204608e-05
3.021500e-05
2.371342e-05
1.318082e-05
3.686909e-06
7.410093e-07
4.177615e-07
2.075864e-07
8.505098e-08
3.211586e-08
1.257590e-08
6.052812e-09
5.139569e-09
2.960599e-09
1.346013e-09
5.718865e-10
2.342874e-10
9.488747e-11
3.824495e-11
1.520688e-11
6.196283e-12
1.725762e-12
-4.665681e-14
-5.699151e-14
-4.986974e-14
-2.324516e-14
-1.819806e-15
1.211908e-16
1.303105e-16
6.516249e-17
4.158329e-18
-5.070446e-19
-6.550860e-20
1.461530e-19
8.622990e-20
6.861732e-20
4.374202e-20
2.146265e-20
7.428313e-21
1.663566e-21
-5.958902e-23
-5.274415e-23
-3.495715e-23
-2.268968e-23
-1.680887e-24
3.990984e-24
2.418265e-24
1.708336e-25
-1.393506e-25
-1.069878e-25
-6.111155e-26
-3.119676e-26
-1.210039e-26
-4.458949e-27
-1.591273e-27
-5.657643e-28
-2.121122e-28
-8.645196e-29
-2.187862e-29
-6.012452e-31
5.567524e-32
7.465076e-32
5.020826e-32
2.473846e-32
9.999999e-01
1.000000e+00
1.000000e+00
1.000001e+00
1.000014e+00
1.000012e+00
9.971653e-01
9.709731e-01
8.969338e-01
7.615805e-01
5.237072e-01
3.740333e-01
1.873745e-01
8.572760e-02
3.193595e-02
8.865609e-03
1.220902e-03
2.395494e-05
2.684988e-05
2.280268e-05
1.612464e-05
7.055468e-06
2.027585e-06
7.183763e-07
3.969357e-07
2.145076e-07
9.098921e-08
2.126850e-08
4.017884e-09
2.938344e-09
1.223228e-09
5.173301e-10
2.039583e-10
8.887726e-11
3.358249e-11
1.555335e-11
5.984849e-12
4.581246e-12
2.542410e-12
6.239604e-13
-3.809934e-14
-4.120000e-14
-3.097109e-14
-1.001125e-14
7.289902e-17
9.092557e-17
8.141495e-17
3.788665e-17
1.676600e-17
6.978022e-18
1.187731e-18
1.523058e-21
3.422410e-20
2.080727e-20
1.452190e-20
8.301836e-21
4.013557e-21
1.564465e-21
4.090137e-22
-2.532725e-23
-5.273517e-24
1.697889e-24
3.974925e-24
2.963343e-24
1.402289e-24
5.267672e-25
1.652204e-25
3.928859e-26
4.391997e-27
-2.016922e-27
-1.469286e-27
-5.856219e-28
-2.166326e-28
-1.094380e-28
-6.328505e-29
-4.168937e-29
-2.330326e-29
-1.211162e-29
-5.662989e-30
-2.413992e-30
1.000000e+00
1.000000e+00
1.000000e+00
9.999998e-01
1.000007e+00
1.000008e+00
9.999749e-01
9.941015e-01
9.638521e-01
8.861369e-01
7.589107e-01
5.118889e-01
3.892886e-01
1.920713e-01
9.235873e-02
3.715340e-02
1.164268e-02
2.263047e-03
4.847159e-05
1.364807e-05
1.699902e-05
1.392393e-05
7.355066e-06
2.006366e-06
4.178637e-07
2.197262e-07
1.742245e-07
1.150295e-07
5.942083e-08
3.036591e-08
1.516192e-08
7.441696e-09
3.502733e-09
1.575640e-09
7.394319e-10
2.491799e-10
2.978788e-11
3.463023e-12
3.118900e-12
2.212610e-12
1.172239e-12
2.653661e-13
-3.031524e-14
-2.571103e-14
-1.611852e-14
-7.180525e-15
-3.019009e-15
-7.687169e-16
1.871743e-17
1.005363e-17
7.121392e-18
3.426057e-18
1.165960e-18
7.950381e-20
-1.376032e-20
4.750010e-21
3.934282e-21
2.677310e-21
1.702927e-21
9.634409e-22
3.825414e-22
1.041790e-22
3.795833e-24
1.593947e-24
1.317491e-24
3.947427e-25
1.229771e-25
-1.501550e-26
-5.950196e-26
-4.679868e-26
-2.114533e-26
-7.491518e-27
-1.389436e-27
8.972303e-29
-4.237833e-29
-1.030865e-29
-2.200197e-29
-3.887314e-30
-7.416197e-30
-4.649586e-30
1.000000e+00
1.000000e+00
1.000000e+00
1.000000e+00
1.000002e+00
1.000006e+00
1.000005e+00
9.997284e-01
9.914544e-01
9.548413e-01
8.817693e-01
7.454319e-01
5.159148e-01
3.938046e-01
1.986391e-01
9.887051e-02
4.195467e-02
1.450177e-02
3.600203e-03
3.372506e-04
2.102525e-05
1.660381e-05
1.324044e-05
9.641374e-06
4.127460e-06
8.473552e-07
1.422449e-07
1.083473e-07
4.506650e-08
2.786387e-08
1.197827e-08
7.358019e-09
3.575726e-09
1.377644e-09
7.277170e-10
6.028869e-10
3.334215e-10
8.552571e-11
4.543025e-12
2.028701e-12
1.564631e-12
1.049157e-12
5.603767e-13
2.323566e-13
6.401312e-14
-5.625692e-15
-4.437411e-15
-3.046783e-15
-1.647688e-15
-7.456409e-16
-2.288402e-16
-6.956789e-18
4.015026e-18
1.812911e-18
8.352685e-19
2.851996e-19
2.837280e-20
2.596453e-21
1.150454e-21
6.211708e-22
6.717007e-22
4.174649e-22
2.057990e-22
8.810089e-23
4.000856e-23
1.783877e-23
7.578153e-24
2.795111e-24
6.270957e-25
-4.083624e-26
-3.763698e-26
-2.628255e-26
-1.573525e-26
-7.797606e-27
-3.331539e-27
-1.476766e-27
-7.073416e-28
-2.389845e-28
-1.365912e-29
-3.753682e-30
1.000000e+00
1.000000e+00
1.000000e+00
1.000000e+00
1.000000e+00
1.000002e+00
1.000006e+00
9.999069e-01
9.998742e-01
9.863358e-01
9.508413e-01
8.715554e-01
7.384633e-01
5.161596e-01
3.972139e-01
2.051690e-01
1.051771e-01
4.636120e-02
1.742424e-02
4.999481e-03
6.019421e-04
6.426829e-06
8.578741e-06
9.237840e-06
7.851385e-06
5.037343e-06
2.468705e-06
1.157355e-06
5.641980e-07
2.765431e-07
1.384514e-07
6.742034e-08
3.445235e-08
1.243658e-08
2.472402e-09
6.099297e-10
4.869666e-10
3.564226e-10
1.633180e-10
3.715726e-11
2.393268e-12
9.972897e-13
5.372509e-13
2.399567e-13
1.693316e-13
1.031112e-13
4.545488e-14
2.015723e-14
5.033077e-15
-6.824550e-16
-5.828724e-16
-3.445532e-16
-1.612651e-16
-4.367193e-17
9.607705e-20
4.718409e-19
3.765963e-19
1.681256e-19
6.540449e-20
8.825434e-21
7.942856e-22
2.709035e-22
2.076423e-22
4.371922e-23
3.174799e-23
-4.708177e-24
6.287396e-24
4.821999e-24
2.665384e-24
1.280319e-24
4.699220e-25
1.665259e-25
5.074706e-26
1.055723e-26
-5.442970e-28
-1.297466e-27
-7.645421e-28
-6.040498e-28
-3.747100e-28
-1.635364e-28
1.000000e+00
1.000000e+00
1.000000e+00
1.000000e+00
1.000000e+00
1.000000e+00
1.000004e+00
9.999630e-01
9.999636e-01
9.977124e-01
9.838816e-01
9.447253e-01
8.635031e-01
7.326522e-01
5.157728e-01
4.001924e-01
2.115548e-01
1.116802e-01
5.053529e-02
2.038914e-02
7.043382e-03
1.727362e-03
2.210503e-04
1.033691e-05
5.755451e-06
3.358348e-06
2.055627e-06
8.961875e-08
3.717356e-07
1.662547e-07
7.985393e-08
6.101248e-08
3.365588e-08
2.781072e-08
1.646509e-08
5.272556e-09
4.844500e-10
3.323029e-10
2.687062e-10
1.786506e-10
8.934694e-11
3.861027e-11
1.378489e-11
1.972666e-12
1.698915e-13
9.472076e-14
4.362953e-14
2.078784e-14
1.607597e-14
9.819688e-15
3.495044e-15
2.718282e-16
-1.582983e-16
-1.403123e-16
-7.981238e-17
-3.590353e-17
-9.863675e-18
7.058508e-20
8.822344e-20
7.132415e-20
3.499152e-20
1.541558e-20
6.891090e-21
2.988475e-21
1.383860e-21
5.263718e-22
4.282249e-23
3.561304e-25
-3.181839e-25
4.056770e-25
3.505973e-25
-3.940513e-25
2.235519e-26
-1.058046e-26
-2.253566e-26
-1.534580e-26
-2.011470e-27
-6.414000e-28
-3.223401e-28
-2.681128e-28
1.000000e+00
1.000000e+00
1.000000e+00
1.000000e+00
1.000000e+00
1.000000e+00
1.000002e+00
9.999851e-01
9.999898e-01
9.999124e-01
9.963186e-01
9.802648e-01
9.386874e-01
8.559104e-01
7.276598e-01
5.149750e-01
4.022432e-01
2.166711e-01
1.189477e-01
5.368947e-02
2.140325e-02
7.355272e-03
2.234966e-03
7.273289e-04
3.160508e-04
1.394931e-04
6.186338e-05
2.801877e-05
1.248222e-05
5.688344e-06
2.698243e-06
8.793015e-07
1.253203e-07
2.289658e-08
2.159784e-08
1.666061e-08
8.440290e-09
2.211746e-09
2.494059e-10
8.095083e-11
8.821515e-11
3.986494e-11
2.852459e-11
1.766165e-11
8.167390e-12
3.752504e-12
1.224191e-12
7.180900e-14
-2.571041e-15
6.812143e-15
6.525419e-15
4.110888e-15
1.993592e-15
6.215614e-16
-1.403912e-17
-3.957307e-17
-3.272225e-17
-1.829893e-17
-7.816018e-18
-3.301542e-18
-1.393355e-18
-5.881128e-19
-2.570438e-19
-1.021756e-19
-8.347063e-21
1.167676e-21
7.263167e-22
3.537761e-22
1.572438e-22
6.892683e-23
3.005233e-23
1.320648e-23
5.284732e-24
1.376769e-24
-2.626816e-28
-2.215781e-26
-2.050223e-26
-1.099167e-26
-2.813201e-27
-3.052859e-28
1.000000e+00
1.000000e+00
1.000000e+00
1.000000e+00
1.000000e+00
1.000000e+00
1.000001e+00
9.999938e-01
9.999934e-01
9.999935e-01
9.996820e-01
9.947718e-01
9.764034e-01
9.334704e-01
8.476164e-01
7.249978e-01
5.158059e-01
4.044072e-01
2.191710e-01
1.311432e-01
6.152796e-02
2.465881e-02
8.087560e-03
1.897688e-03
2.957059e-04
1.371009e-04
6.232882e-05
2.422246e-05
1.282257e-05
5.697792e-06
2.761324e-06
2.219671e-06
1.229255e-06
3.147592e-07
1.942541e-08
1.630823e-08
1.295308e-08
9.191472e-09
4.850843e-09
2.336425e-09
9.301650e-10
1.941444e-10
2.433268e-11
1.239318e-11
4.481638e-12
3.739966e-12
2.998774e-12
1.861459e-12
7.751434e-13
1.632755e-13
2.865387e-15
2.581381e-15
1.302432e-15
1.447624e-15
9.024458e-16
3.877941e-16
1.537534e-16
5.674819e-17
1.997951e-17
6.510969e-18
1.825918e-18
3.266061e-19
-8.207192e-20
-1.293129e-19
-1.125920e-19
-5.253331e-20
-2.278607e-20
-9.972045e-21
-4.405674e-21
-1.981875e-21
-7.281855e-22
-1.085039e-22
8.075873e-24
4.608862e-24
2.508782e-24
8.910835e-25
1.165686e-25
-1.290471e-26
-1.153794e-26
-6.640830e-27
1.000000e+00
1.000000e+00
1.000000e+00
1.000000e+00
1.000000e+00
1.000000e+00
1.000000e+00
9.999986e-01
9.999948e-01
9.999957e-01
9.999962e-01
9.992751e-01
9.929732e-01
9.723955e-01
9.302048e-01
8.318993e-01
7.228433e-01
5.194575e-01
4.070629e-01
2.222638e-01
1.368345e-01
6.861923e-02
3.017219e-02
1.137586e-02
3.483917e-03
9.519771e-04
4.682424e-04
2.290316e-04
1.168294e-04
4.177071e-05
8.072496e-06
2.135014e-06
1.829806e-06
1.339171e-06
5.933272e-07
1.259306e-07
1.051720e-08
7.378047e-09
4.709596e-09
2.247205e-09
1.764708e-09
1.121941e-09
5.410768e-10
2.485726e-10
9.613241e-11
1.679506e-11
3.236247e-12
1.892313e-12
1.334839e-12
8.736888e-13
4.309101e-13
1.601136e-13
2.135596e-14
1.417674e-15
6.728038e-16
-2.286036e-16
-1.486239e-16
-7.797142e-17
-7.846512e-18
3.828931e-19
-9.733472e-19
-1.069461e-18
-2.677502e-19
-1.105463e-19
-1.097800e-19
-5.297031e-20
-2.195507e-20
-7.852933e-21
-3.344519e-21
-1.937698e-21
-1.425911e-21
-9.107527e-22
-4.065931e-22
-8.453982e-23
3.021262e-24
1.678099e-24
1.025305e-24
4.480517e-25
1.609901e-25
4.578345e-26
1.000000e+00
1.000000e+00
1.000000e+00
1.000000e+00
1.000000e+00
1.000000e+00
1.000000e+00
1.000000e+00
9.999971e-01
9.999961e-01
9.999979e-01
9.999404e-01
9.989833e-01
9.901936e-01
9.711740e-01
9.210098e-01
8.231582e-01
7.195464e-01
5.218078e-01
4.078197e-01
2.281149e-01
1.366357e-01
6.952362e-02
3.127157e-02
1.176589e-02
3.394086e-03
5.652881e-04
2.340672e-04
1.215579e-04
9.821648e-05
5.576101e-05
1.601173e-05
2.017357e-06
1.120497e-06
1.001895e-06
6.740765e-07
3.376706e-07
1.575239e-07
6.023437e-08
1.083466e-08
1.908964e-09
1.087603e-09
4.759090e-10
2.517006e-10
1.852648e-10
1.161813e-10
5.783654e-11
1.964299e-11
1.801387e-12
6.767108e-13
4.137989e-13
3.255783e-13
2.091672e-13
9.846422e-14
4.434821e-14
2.014743e-14
8.879672e-15
3.882029e-15
1.672039e-15
7.414960e-16
2.275403e-16
9.219611e-18
-1.607566e-19
-9.716902e-19
-6.152364e-19
-3.461570e-19
-1.838300e-19
-9.796748e-20
-4.836327e-20
-1.420328e-20
-1.554773e-21
-7.638648e-22
-6.492609e-22
-4.378296e-22
-2.247660e-22
-9.560887e-23
-3.510792e-23
-6.498607e-24
1.142644e-25
1.139171e-25
1.000000e+00
1.000000e+00
1.000000e+00
1.000000e+00
1.000000e+00
1.000000e+00
1.000000e+00
1.000000e+00
9.999995e-01
9.999972e-01
9.999976e-01
9.999728e-01
1.000009e+00
9.975385e-01
9.896831e-01
9.671866e-01
9.134970e-01
8.160362e-01
7.166183e-01
5.214880e-01
4.107658e-01
2.332193e-01
1.463706e-01
7.664597e-02
3.646142e-02
1.523126e-02
5.256875e-03
1.345106e-03
2.954709e-04
9.850127e-05
8.115979e-05
6.079048e-05
2.955110e-05
7.943398e-06
1.071194e-06
5.426370e-07
2.776059e-07
1.434180e-07
1.194697e-07
7.749449e-08
3.801445e-08
1.760904e-08
6.629755e-09
1.156734e-09
1.229472e-10
7.360015e-11
6.189062e-11
4.829840e-11
3.021064e-11
1.160785e-11
1.977577e-12
3.561172e-13
2.108352e-13
4.504690e-14
2.685954e-14
1.500831e-14
7.855527e-15
3.441499e-15
9.325204e-16
7.125786e-16
5.803097e-16
3.363143e-16
1.522993e-16
6.493955e-17
2.759534e-17
1.203968e-17
3.641358e-18
1.234973e-19
-5.675130e-20
-5.270236e-20
-2.916336e-20
-7.556103e-21
-7.404245e-22
-2.093674e-22
-1.238878e-22
-9.315856e-23
-6.344241e-23
-3.865152e-23
-1.940800e-23
-6.988560e-24
1.000000e+00
1.000000e+00
1.000000e+00
1.000000e+00
1.000000e+00
1.000000e+00
1.000000e+00
1.000000e+00
1.000000e+00
9.999986e-01
9.999986e-01
9.999871e-01
9.999887e-01
9.996285e-01
9.969533e-01
9.879678e-01
9.629848e-01
9.062286e-01
8.112355e-01
7.119489e-01
5.210545e-01
4.143718e-01
2.385868e-01
1.469424e-01
7.675395e-02
3.696602e-02
1.603975e-02
5.932679e-03
1.813464e-03
4.373779e-04
8.943149e-05
6.109932e-05
4.613355e-05
3.044961e-05
1.481880e-05
5.662453e-06
2.467422e-06
7.691093e-07
1.240670e-07
6.957812e-08
3.851012e-08
1.774725e-08
1.400080e-08
8.636202e-09
4.245193e-09
1.410776e-09
1.306560e-10
3.750060e-11
2.859624e-11
2.325798e-11
1.507917e-11
7.465845e-12
3.520708e-12
1.638897e-12
7.484892e-13
3.451469e-13
1.568119e-13
7.343766e-14
2.495707e-14
2.381010e-15
1.101226e-16
2.644680e-16
8.797679e-17
2.919144e-17
2.236011e-17
1.080482e-17
9.221162e-18
5.396428e-18
1.511538e-18
-5.168230e-20
-3.998503e-20
-3.039274e-20
-1.622611e-20
-7.597985e-21
-3.388144e-21
-9.542428e-22
-6.794201e-23
-1.097976e-23
-1.029648e-23
-6.123775e-24
1.000000e+00
1.000000e+00
1.000000e+00
1.000000e+00
1.000000e+00
1.000000e+00
1.000000e+00
1.000000e+00
1.000000e+00
9.999994e-01
9.999994e-01
9.999940e-01
9.999916e-01
9.999934e-01
9.993666e-01
9.962177e-01
9.859973e-01
9.586156e-01
8.993051e-01
8.088139e-01
7.066984e-01
5.196641e-01
4.154587e-01
2.429608e-01
1.591273e-01
8.340413e-02
4.028018e-02
1.765502e-02
6.896004e-03
2.333192e-03
6.609496e-04
1.615483e-04
5.753946e-05
3.595320e-05
2.267533e-05
1.052341e-05
4.058242e-06
2.669393e-06
1.492003e-06
7.165248e-07
3.065803e-07
6.843449e-08
1.142407e-08
6.995951e-09
4.386669e-09
3.497158e-09
2.113598e-09
7.955540e-10
1.391208e-10
1.652284e-11
1.446854e-11
6.428204e-12
3.380361e-12
1.091785e-12
5.840294e-13
3.280134e-13
1.457031e-13
7.346921e-14
5.957060e-14
3.602254e-14
1.645577e-14
7.237196e-15
3.259903e-15
1.532664e-15
5.032091e-16
6.239724e-17
7.834262e-18
6.088745e-18
4.685693e-18
2.584651e-18
1.073527e-18
4.566189e-19
1.298385e-19
-4.318731e-21
-4.376745e-21
-3.403992e-21
-1.803497e-21
-8.026957e-22
-3.675841e-22
-1.368304e-22
1.000000e+00
1.000000e+00
1.000000e+00
1.000000e+00
1.000000e+00
1.000000e+00
1.000000e+00
1.000000e+00
1.000000e+00
9.999998e-01
9.999998e-01
9.999980e-01
9.999941e-01
9.999948e-01
9.999366e-01
9.991134e-01
9.953277e-01
9.837909e-01
9.547028e-01
8.885054e-01
8.115287e-01
7.049325e-01
5.184992e-01
4.165356e-01
2.444883e-01
1.649262e-01
8.851517e-02
4.341292e-02
1.932437e-02
7.742559e-03
2.738833e-03
8.283455e-04
2.257193e-04
7.603633e-05
4.248279e-05
2.796703e-05
1.316043e-05
3.327423e-06
1.485102e-06
6.999864e-07
5.625400e-07
3.619422e-07
1.906475e-07
6.839737e-08
1.077599e-08
3.002280e-09
2.031914e-09
1.616425e-09
1.010253e-09
4.882234e-10
2.235185e-10
1.061059e-10
4.974216e-11
2.334159e-11
1.068801e-11
5.070478e-12
1.733931e-12
2.168086e-13
4.283256e-14
3.124372e-14
1.301257e-14
2.706078e-15
3.026189e-15
1.561025e-15
1.244084e-15
7.083384e-16
1.937641e-16
6.252626e-18
2.507599e-18
9.510773e-19
6.639287e-19
4.348371e-19
3.486178e-19
1.984643e-19
8.319125e-20
3.399410e-20
1.365075e-20
5.442258e-21
2.147464e-21
7.788857e-22
1.000000e+00
1.000000e+00
1.000000e+00
1.000000e+00
1.000000e+00
1.000000e+00
1.000000e+00
1.000000e+00
1.000000e+00
9.999999e-01
9.999999e-01
9.999998e-01
9.999966e-01
9.999957e-01
9.999959e-01
9.998392e-01
9.989846e-01
9.937435e-01
9.846024e-01
9.402910e-01
8.937386e-01
7.989462e-01
7.032386e-01
5.214430e-01
4.170974e-01
2.478288e-01
1.704941e-01
9.366274e-02
4.706391e-02
2.143641e-02
8.831981e-03
3.234437e-03
1.022904e-03
2.765473e-04
7.650837e-05
3.964945e-05
2.996136e-05
1.971928e-05
9.237348e-06
2.971422e-06
5.931367e-07
3.375289e-07
1.886705e-07
1.544240e-07
9.752520e-08
4.020103e-08
8.912804e-09
1.603785e-09
8.584407e-10
4.917942e-10
2.320967e-10
9.248861e-11
3.532683e-11
1.978806e-11
9.165858e-12
5.091973e-12
4.150519e-12
2.543792e-12
1.193063e-12
5.468309e-13
2.521618e-13
1.211653e-13
3.966354e-14
6.266887e-15
1.349261e-15
9.295216e-16
6.930520e-16
3.680267e-16
1.605056e-16
7.343575e-17
2.333797e-17
1.490137e-18
2.444956e-19
1.613450e-19
4.644642e-20
3.098571e-20
1.132695e-20
3.456758e-21
1.252425e-21
2.975004e-22
1.000000e+00
1.000000e+00
1.000000e+00
1.000000e+00
1.000000e+00
1.000000e+00
1.000000e+00
1.000000e+00
1.000000e+00
1.000000e+00
9.999999e-01
9.999999e-01
9.999990e-01
9.999968e-01
9.999969e-01
9.999266e-01
9.999284e-01
9.969899e-01
9.968222e-01
9.755408e-01
9.436496e-01
8.871893e-01
7.906827e-01
7.010224e-01
5.219031e-01
4.173929e-01
2.503165e-01
1.743884e-01
9.763021e-02
5.031708e-02
2.348990e-02
9.966477e-03
3.821174e-03
1.296086e-03
3.740720e-04
8.567323e-05
2.948896e-05
1.964974e-05
1.460084e-05
9.755231e-06
5.026424e-06
1.848922e-06
5.216279e-07
1.518285e-07
9.670160e-08
7.551033e-08
4.865464e-08
2.445445e-08
1.153494e-08
5.544168e-09
2.581769e-09
1.190119e-09
5.651628e-10
2.783687e-10
9.882315e-11
1.542032e-11
4.327125e-12
2.182160e-12
9.024935e-13
3.177576e-13
2.343316e-13
1.157584e-13
9.725655e-14
5.388149e-14
1.566011e-14
9.015050e-16
6.688223e-16
3.735564e-16
1.502422e-16
7.435649e-17
5.897903e-17
3.513191e-17
1.568353e-17
6.951786e-18
3.140339e-18
1.380916e-18
5.987006e-19
2.592361e-19
1.130205e-19
4.562798e-20
1.000000e+00
1.000000e+00
1.000000e+00
1.000000e+00
1.000000e+00
1.000000e+00
1.000000e+00
1.000000e+00
1.000000e+00
1.000000e+00
1.000000e+00
9.999999e-01
9.999999e-01
9.999982e-01
9.999987e-01
9.999662e-01
9.999670e-01
9.986294e-01
9.986260e-01
9.922974e-01
9.748734e-01
9.412071e-01
8.823129e-01
7.836498e-01
6.994287e-01
5.244436e-01
4.206210e-01
2.546097e-01
1.790310e-01
1.014491e-01
5.356049e-02
2.549528e-02
1.100943e-02
4.340265e-03
1.567904e-03
5.150526e-04
1.481821e-04
4.577226e-05
1.924930e-05
1.188653e-05
7.861963e-06
4.236433e-06
2.315344e-06
1.142059e-06
4.063279e-07
7.446024e-08
4.865109e-08
2.064572e-08
1.058294e-08
4.701483e-09
2.198331e-09
1.075399e-09
5.207297e-10
2.732928e-10
2.274160e-10
1.391020e-10
6.761950e-11
3.073967e-11
1.471574e-11
7.312148e-12
2.506122e-12
4.514995e-13
8.878154e-14
8.173422e-14
5.739356e-14
3.064041e-14
1.378150e-14
6.558361e-15
2.105571e-15
2.145602e-16
5.584636e-17
9.913989e-18
1.226800e-17
2.147220e-18
1.380650e-18
7.476985e-19
4.225748e-19
1.914906e-19
1.100698e-19
4.454550e-20
1.000000e+00
1.000000e+00
1.000000e+00
1.000000e+00
1.000000e+00
1.000000e+00
1.000000e+00
1.000000e+00
1.000000e+00
1.000000e+00
1.000000e+00
1.000000e+00
1.000000e+00
9.999992e-01
9.999993e-01
9.999846e-01
9.999928e-01
9.993802e-01
9.993723e-01
9.979062e-01
9.904610e-01
9.730051e-01
9.372319e-01
8.796815e-01
7.715086e-01
6.918123e-01
5.232855e-01
4.222053e-01
2.585874e-01
1.840241e-01
1.048593e-01
5.702603e-02
2.784178e-02
1.220678e-02
4.829919e-03
1.742287e-03
5.760678e-04
1.823907e-04
6.053259e-05
2.389271e-05
1.273979e-05
7.869094e-06
3.740642e-06
1.676440e-06
1.093072e-06
6.611611e-07
3.275765e-07
1.691984e-07
8.751741e-08
4.308677e-08
2.086237e-08
1.045196e-08
4.203046e-09
9.023902e-10
2.012650e-10
1.291255e-10
6.848291e-11
2.730170e-11
1.337188e-11
7.244622e-12
5.979789e-12
3.284707e-12
9.570794e-13
1.019801e-13
5.883241e-14
2.355248e-14
9.562710e-15
6.407731e-15
5.248805e-15
3.171949e-15
1.429835e-15
6.639006e-16
2.998243e-16
1.419010e-16
6.387638e-17
2.895073e-17
1.270884e-17
5.821458e-18
1.832773e-18
2.490801e-19
1.000000e+00
1.000000e+00
1.000000e+00
1.000000e+00
1.000000e+00
1.000000e+00
1.000000e+00
1.000000e+00
1.000000e+00
1.000000e+00
1.000000e+00
1.000000e+00
1.000000e+00
9.999997e-01
9.999997e-01
9.999930e-01
9.999991e-01
9.997669e-01
9.995532e-01
9.994406e-01
9.969336e-01
9.891972e-01
9.704010e-01
9.337593e-01
8.782618e-01
7.661896e-01
6.869211e-01
5.219885e-01
4.232990e-01
2.619736e-01
1.899565e-01
1.067851e-01
5.992502e-02
3.035712e-02
1.379064e-02
5.610305e-03
2.045892e-03
6.772270e-04
2.132110e-04
7.115109e-05
2.708613e-05
1.372684e-05
9.879809e-06
4.645033e-06
1.502620e-06
6.385237e-07
3.199764e-07
1.675311e-07
8.340432e-08
4.429821e-08
1.977405e-08
1.026620e-08
8.355349e-09
5.352453e-09
2.689615e-09
1.268425e-09
6.375344e-10
3.148875e-10
1.102969e-10
2.271728e-11
5.565726e-12
4.954405e-12
3.454643e-12
1.894257e-12
8.703656e-13
4.156017e-13
1.460952e-13
1.808374e-14
4.188583e-15
2.933793e-15
1.304741e-15
5.806816e-16
3.007690e-16
7.933460e-17
4.813265e-17
2.124058e-17
9.717099e-18
5.741898e-18
4.723173e-18
2.385140e-18
1.000000e+00
1.000000e+00
1.000000e+00
1.000000e+00
1.000000e+00
1.000000e+00
1.000000e+00
1.000000e+00
1.000000e+00
1.000000e+00