# vtk DataFile Version 3.0
CD_1JC
ASCII
DATASET STRUCTURED_GRID
DIMENSIONS 41 41 1
POINTS 1681 double
0.000000e+00 0.000000e+00 0.0
2.500000e-02 0.000000e+00 0.0
5.000000e-02 0.000000e+00 0.0
7.500000e-02 0.000000e+00 0.0
1.000000e-01 0.000000e+00 0.0
1.250000e-01 0.000000e+00 0.0
1.500000e-01 0.000000e+00 0.0
1.750000e-01 0.000000e+00 0.0
2.000000e-01 0.000000e+00 0.0
2.250000e-01 0.000000e+00 0.0
2.500000e-01 0.000000e+00 0.0
2.750000e-01 0.000000e+00 0.0
3.000000e-01 0.000000e+00 0.0
3.250000e-01 0.000000e+00 0.0
3.500000e-01 0.000000e+00 0.0
3.750000e-01 0.000000e+00 0.0
4.000000e-01 0.000000e+00 0.0
4.250000e-01 0.000000e+00 0.0
4.500000e-01 0.000000e+00 0.0
4.750000e-01 0.000000e+00 0.0
5.000000e-01 0.000000e+00 0.0
5.250000e-01 0.000000e+00 0.0
5.500000e-01 0.000000e+00 0.0
5.750000e-01 0.000000e+00 0.0
6.000000e-01 0.000000e+00 0.0
6.250000e-01 0.000000e+00 0.0
6.500000e-01 0.000000e+00 0.0
6.750000e-01 0.000000e+00 0.0
7.000000e-01 0.000000e+00 0.0
7.250000e-01 0.000000e+00 0.0
7.500000e-01 0.000000e+00 0.0
7.750000e-01 0.000000e+00 0.0
8.000000e-01 0.000000e+00 0.0
8.250000e-01 0.000000e+00 0.0
8.500000e-01 0.000000e+00 0.0
8.750000e-01 0.000000e+00 0.0
9.000000e-01 0.000000e+00 0.0
9.250000e-01 0.000000e+00 0.0
9.500000e-01 0.000000e+00 0.0
9.750000e-01 0.000000e+00 0.0
1.000000e+00 0.000000e+00 0.0
0.000000e+00 2.500000e-02 0.0
2.500000e-02 2.500000e-02 0.0
5.000000e-02 2.500000e-02 0.0
7.500000e-02 2.500000e-02 0.0
1.000000e-01 2.500000e-02 0.0
1.250000e-01 2.500000e-02 0.0
1.500000e-01 2.500000e-02 0.0
1.750000e-01 2.500000e-02 0.0
2.000000e-01 2.500000e-02 0.0
2.250000e-01 2.500000e-02 0.0
2.500000e-01 2.500000e-02 0.0
2.750000e-01 2.500000e-02 0.0
3.000000e-01 2.500000e-02 0.0
3.250000e-01 2.500000e-02 0.0
3.500000e-01 2.500000e-02 0.0
3.750000e-01 2.500000e-02 0.0
4.000000e-01 2.500000e-02 0.0
4.250000e-01 2.500000e-02 0.0
4.500000e-01 2.500000e-02 0.0
4.750000e-01 2.500000e-02 0.0
5.000000e-01 2.500000e-02 0.0
5.250000e-01 2.500000e-02 0.0
5.500000e-01 2.500000e-02 0.0
5.750000e-01 2.500000e-02 0.0
6.000000e-01 2.500000e-02 0.0
6.250000e-01 2.500000e-02 0.0
6.500000e-01 2.500000e-02 0.0
6.750000e-01 2.500000e-02 0.0
7.000000e-01 2.500000e-02 0.0
7.250000e-01 2.500000e-02 0.0
7.500000e-01 2.500000e-02 0.0
7.750000e-01 2.500000e-02 0.0
8.000000e-01 2.500000e-02 0.0
8.250000e-01 2.500000e-02 0.0
8.500000e-01 2.500000e-02 0.0
8.750000e-01 2.500000e-02 0.0
9.000000e-01 2.500000e-02 0.0
9.250000e-01 2.500000e-02 0.0
9.500000e-01 2.500000e-02 0.0
9.750000e-01 2.500000e-02 0.0
1.000000e+00 2.500000e-02 0.0
0.000000e+00 5.000000e-02 0.0
2.500000e-02 5.000000e-02 0.0
5.000000e-02 5.000000e-02 0.0
7.500000e-02 5.000000e-02 0.0
1.000000e-01 5.000000e-02 0.0
1.250000e-01 5.000000e-02 0.0
1.500000e-01 5.000000e-02 0.0
1.750000e-01 5.000000e-02 0.0
2.000000e-01 5.000000e-02 0.0
2.250000e-01 5.000000e-02 0.0
2.500000e-01 5.000000e-02 0.0
2.750000e-01 5.000000e-02 0.0
3.000000e-01 5.000000e-02 0.0
3.250000e-01 5.000000e-02 0.0
3.500000e-01 5.000000e-02 0.0
3.750000e-01 5.000000e-02 0.0
4.000000e-01 5.000000e-02 0.0
4.250000e-01 5.000000e-02 0.0
4.500000e-01 5.000000e-02 0.0
4.750000e-01 5.000000e-02 0.0
5.000000e-01 5.000000e-02 0.0
5.250000e-01 5.000000e-02 0.0
5.500000e-01 5.000000e-02 0.0
5.750000e-01 5.000000e-02 0.0
6.000000e-01 5.000000e-02 0.0
6.250000e-01 5.000000e-02 0.0
6.500000e-01 5.000000e-02 0.0
6.750000e-01 5.000000e-02 0.0
7.000000e-01 5.000000e-02 0.0
7.250000e-01 5.000000e-02 0.0
7.500000e-01 5.000000e-02 0.0
7.750000e-01 5.000000e-02 0.0
8.000000e-01 5.000000e-02 0.0
8.250000e-01 5.000000e-02 0.0
8.500000e-01 5.000000e-02 0.0
8.750000e-01 5.000000e-02 0.0
9.000000e-01 5.000000e-02 0.0
9.250000e-01 5.000000e-02 0.0
9.500000e-01 5.000000e-02 0.0
9.750000e-01 5.000000e-02 0.0
1.000000e+00 5.000000e-02 0.0
0.000000e+00 7.500000e-02 0.0
2.500000e-02 7.500000e-02 0.0
5.000000e-02 7.500000e-02 0.0
7.500000e-02 7.500000e-02 0.0
1.000000e-01 7.500000e-02 0.0
1.250000e-01 7.500000e-02 0.0
1.500000e-01 7.500000e-02 0.0
1.750000e-01 7.500000e-02 0.0
2.000000e-01 7.500000e-02 0.0
2.250000e-01 7.500000e-02 0.0
2.500000e-01 7.500000e-02 0.0
2.750000e-01 7.500000e-02 0.0
3.000000e-01 7.500000e-02 0.0
3.250000e-01 7.500000e-02 0.0
3.500000e-01 7.500000e-02 0.0
3.750000e-01 7.500000e-02 0.0
4.000000e-01 7.500000e-02 0.0
4.250000e-01 7.500000e-02 0.0
4.500000e-01 7.500000e-02 0.0
4.750000e-01 7.500000e-02 0.0
5.000000e-01 7.500000e-02 0.0
5.250000e-01 7.500000e-02 0.0
5.500000e-01 7.500000e-02 0.0
5.750000e-01 7.500000e-02 0.0
6.000000e-01 7.500000e-02 0.0
6.250000e-01 7.500000e-02 0.0
6.500000e-01 7.500000e-02 0.0
6.750000e-01 7.500000e-02 0.0
7.000000e-01 7.500000e-02 0.0
7.250000e-01 7.500000e-02 0.0
7.500000e-01 7.500000e-02 0.0
7.750000e-01 7.500000e-02 0.0
8.000000e-01 7.500000e-02 0.0
8.250000e-01 7.500000e-02 0.0
8.500000e-01 7.500000e-02 0.0
8.750000e-01 7.500000e-02 0.0
9.000000e-01 7.500000e-02 0.0
9.250000e-01 7.500000e-02 0.0
9.500000e-01 7.500000e-02 0.0
9.750000e-01 7.500000e-02 0.0
1.000000e+00 7.500000e-02 0.0
0.000000e+00 1.000000e-01 0.0
2.500000e-02 1.000000e-01 0.0
5.000000e-02 1.000000e-01 0.0
7.500000e-02 1.000000e-01 0.0
1.000000e-01 1.000000e-01 0.0
1.250000e-01 1.000000e-01 0.0
1.500000e-01 1.000000e-01 0.0
1.750000e-01 1.000000e-01 0.0
2.000000e-01 1.000000e-01 0.0
2.250000e-01 1.000000e-01 0.0
2.500000e-01 1.000000e-01 0.0
2.750000e-01 1.000000e-01 0.0
3.000000e-01 1.000000e-01 0.0
3.250000e-01 1.000000e-01 0.0
3.500000e-01 1.000000e-01 0.0
3.750000e-01 1.000000e-01 0.0
4.000000e-01 1.000000e-01 0.0
4.250000e-01 1.000000e-01 0.0
4.500000e-01 1.000000e-01 0.0
4.750000e-01 1.000000e-01 0.0
5.000000e-01 1.000000e-01 0.0
5.250000e-01 1.000000e-01 0.0
5.500000e-01 1.000000e-01 0.0
5.750000e-01 1.000000e-01 0.0
6.000000e-01 1.000000e-01 0.0
6.250000e-01 1.000000e-01 0.0
6.500000e-01 1.000000e-01 0.0
6.750000e-01 1.000000e-01 0.0
7.000000e-01 1.000000e-01 0.0
7.250000e-01 1.000000e-01 0.0
7.500000e-01 1.000000e-01 0.0
7.750000e-01 1.000000e-01 0.0
8.000000e-01 1.000000e-01 0.0
8.250000e-01 1.000000e-01 0.0
8.500000e-01 1.000000e-01 0.0
8.750000e-01 1.000000e-01 0.0
9.000000e-01 1.000000e-01 0.0
9.250000e-01 1.000000e-01 0.0
9.500000e-01 1.000000e-01 0.0
9.750000e-01 1.000000e-01 0.0
1.000000e+00 1.000000e-01 0.0
0.000000e+00 1.250000e-01 0.0
2.500000e-02 1.250000e-01 0.0
5.000000e-02 1.250000e-01 0.0
7.500000e-02 1.250000e-01 0.0
1.000000e-01 1.250000e-01 0.0
1.250000e-01 1.250000e-01 0.0
1.500000e-01 1.250000e-01 0.0
1.750000e-01 1.250000e-01 0.0
2.000000e-01 1.250000e-01 0.0
2.250000e-01 1.250000e-01 0.0
2.500000e-01 1.250000e-01 0.0
2.750000e-01 1.250000e-01 0.0
3.000000e-01 1.250000e-01 0.0
3.250000e-01 1.250000e-01 0.0
3.500000e-01 1.250000e-01 0.0
3.750000e-01 1.250000e-01 0.0
4.000000e-01 1.250000e-01 0.0
4.250000e-01 1.250000e-01 0.0
4.500000e-01 1.250000e-01 0.0
4.750000e-01 1.250000e-01 0.0
5.000000e-01 1.250000e-01 0.0
5.250000e-01 1.250000e-01 0.0
5.500000e-01 1.250000e-01 0.0
5.750000e-01 1.250000e-01 0.0
6.000000e-01 1.250000e-01 0.0
6.250000e-01 1.250000e-01 0.0
6.500000e-01 1.250000e-01 0.0
6.750000e-01 1.250000e-01 0.0
7.000000e-01 1.250000e-01 0.0
7.250000e-01 1.250000e-01 0.0
7.500000e-01 1.250000e-01 0.0
7.750000e-01 1.250000e-01 0.0
8.000000e-01 1.250000e-01 0.0
8.250000e-01 1.250000e-01 0.0
8.500000e-01 1.250000e-01 0.0
8.750000e-01 1.250000e-01 0.0
9.000000e-01 1.250000e-01 0.0
9.250000e-01 1.250000e-01 0.0
9.500000e-01 1.250000e-01 0.0
9.750000e-01 1.250000e-01 0.0
1.000000e+00 1.250000e-01 0.0
0.000000e+00 1.500000e-01 0.0
2.500000e-02 1.500000e-01 0.0
5.000000e-02 1.500000e-01 0.0
7.500000e-02 1.500000e-01 0.0
1.000000e-01 1.500000e-01 0.0
1.250000e-01 1.500000e-01 0.0
1.500000e-01 1.500000e-01 0.0
1.750000e-01 1.500000e-01 0.0
2.000000e-01 1.500000e-01 0.0
2.250000e-01 1.500000e-01 0.0
2.500000e-01 1.500000e-01 0.0
2.750000e-01 1.500000e-01 0.0
3.000000e-01 1.500000e-01 0.0
3.250000e-01 1.500000e-01 0.0
3.500000e-01 1.500000e-01 0.0
3.750000e-01 1.500000e-01 0.0
4.000000e-01 1.500000e-01 0.0
4.250000e-01 1.500000e-01 0.0
4.500000e-01 1.500000e-01 0.0
4.750000e-01 1.500000e-01 0.0
5.000000e-01 1.500000e-01 0.0
5.250000e-01 1.500000e-01 0.0
5.500000e-01 1.500000e-01 0.0
5.750000e-01 1.500000e-01 0.0
6.000000e-01 1.500000e-01 0.0
6.250000e-01 1.500000e-01 0.0
6.500000e-01 1.500000e-01 0.0
6.750000e-01 1.500000e-01 0.0
7.000000e-01 1.500000e-01 0.0
7.250000e-01 1.500000e-01 0.0
7.500000e-01 1.500000e-01 0.0
7.750000e-01 1.500000e-01 0.0
8.000000e-01 1.500000e-01 0.0
8.250000e-01 1.500000e-01 0.0
8.500000e-01 1.500000e-01 0.0
8.750000e-01 1.500000e-01 0.0
9.000000e-01 1.500000e-01 0.0
9.250000e-01 1.500000e-01 0.0
9.500000e-01 1.500000e-01 0.0
9.750000e-01 1.500000e-01 0.0
1.000000e+00 1.500000e-01 0.0
0.000000e+00 1.750000e-01 0.0
2.500000e-02 1.750000e-01 0.0
5.000000e-02 1.750000e-01 0.0
7.500000e-02 1.750000e-01 0.0
1.000000e-01 1.750000e-01 0.0
1.250000e-01 1.750000e-01 0.0
1.500000e-01 1.750000e-01 0.0
1.750000e-01 1.750000e-01 0.0
2.000000e-01 1.750000e-01 0.0
2.250000e-01 1.750000e-01 0.0
2.500000e-01 1.750000e-01 0.0
2.750000e-01 1.750000e-01 0.0
3.000000e-01 1.750000e-01 0.0
3.250000e-01 1.750000e-01 0.0
3.500000e-01 1.750000e-01 0.0
3.750000e-01 1.750000e-01 0.0
4.000000e-01 1.750000e-01 0.0
4.250000e-01 1.750000e-01 0.0
4.500000e-01 1.750000e-01 0.0
4.750000e-01 1.750000e-01 0.0
5.000000e-01 1.750000e-01 0.0
5.250000e-01 1.750000e-01 0.0
5.500000e-01 1.750000e-01 0.0
5.750000e-01 1.750000e-01 0.0
6.000000e-01 1.750000e-01 0.0
6.250000e-01 1.750000e-01 0.0
6.500000e-01 1.750000e-01 0.0
6.750000e-01 1.750000e-01 0.0
7.000000e-01 1.750000e-01 0.0
7.250000e-01 1.750000e-01 0.0
7.500000e-01 1.750000e-01 0.0
7.750000e-01 1.750000e-01 0.0
8.000000e-01 1.750000e-01 0.0
8.250000e-01 1.750000e-01 0.0
8.500000e-01 1.750000e-01 0.0
8.750000e-01 1.750000e-01 0.0
9.000000e-01 1.750000e-01 0.0
9.250000e-01 1.750000e-01 0.0
9.500000e-01 1.750000e-01 0.0
9.750000e-01 1.750000e-01 0.0
1.000000e+00 1.750000e-01 0.0
0.000000e+00 2.000000e-01 0.0
[...]
CELL_DATA 1600
SCALARS Temperature double 1
LOOKUP_TABLE default
5.000000e-01
2.255020e-01
1.319785e-01
9.139021e-02
6.970478e-02
5.628416e-02
4.713808e-02
4.049142e-02
3.543795e-02
3.146502e-02
2.825984e-02
2.562030e-02
2.340990e-02
2.153307e-02
1.992090e-02
1.852242e-02
1.729920e-02
1.622167e-02
1.526676e-02
1.441621e-02
1.365539e-02
1.297248e-02
1.235783e-02
1.180351e-02
1.130295e-02
1.085070e-02
1.044220e-02
1.007365e-02
9.741871e-03
9.444202e-03
9.178439e-03
8.942760e-03
8.735688e-03
8.556042e-03
8.402916e-03
8.275652e-03
8.173824e-03
8.097227e-03
8.045870e-03
8.019974e-03
7.744980e-01
5.000000e-01
3.473150e-01
2.588676e-01
2.038299e-01
1.670880e-01
1.410700e-01
1.217630e-01
1.068997e-01
9.511992e-02
8.556360e-02
7.766216e-02
7.102549e-02
6.537734e-02
6.051682e-02
5.629446e-02
5.259686e-02
4.933648e-02
4.644475e-02
4.386728e-02
4.156040e-02
3.948872e-02
3.762332e-02
3.594038e-02
3.442017e-02
3.304629e-02
3.180503e-02
3.068491e-02
2.967636e-02
2.877135e-02
2.796323e-02
2.724651e-02
2.661671e-02
2.607027e-02
2.560447e-02
2.521732e-02
2.490753e-02
2.467449e-02
2.451824e-02
2.443945e-02
8.680215e-01
6.526850e-01
5.000000e-01
3.949360e-01
3.216614e-01
2.690429e-01
2.300104e-01
2.001595e-01
1.767108e-01
1.578647e-01
1.424213e-01
1.295567e-01
1.186900e-01
1.094010e-01
1.013793e-01
9.439111e-02
8.825729e-02
8.283842e-02
7.802460e-02
7.372811e-02
6.987827e-02
6.641754e-02
6.329876e-02
6.048296e-02
5.793783e-02
5.563640e-02
5.355611e-02
5.167806e-02
4.998644e-02
4.846800e-02
4.711174e-02
4.590857e-02
4.485110e-02
4.393344e-02
4.315108e-02
4.250072e-02
4.198028e-02
4.158874e-02
4.132620e-02
4.119382e-02
9.086098e-01
7.411324e-01
6.050640e-01
5.000000e-01
4.199650e-01
3.586609e-01
3.110326e-01
2.733828e-01
2.430930e-01
2.183181e-01
1.977485e-01
1.804416e-01
1.657084e-01
1.530366e-01
1.420396e-01
1.324210e-01
1.239503e-01
1.164463e-01
1.097647e-01
1.037895e-01
9.842647e-02
9.359855e-02
8.924225e-02
8.530493e-02
8.174274e-02
7.851900e-02
7.560293e-02
7.296872e-02
7.059469e-02
6.846268e-02
6.655759e-02
6.486693e-02
6.338053e-02
6.209032e-02
6.099007e-02
6.007531e-02
5.934316e-02
5.879230e-02
5.842289e-02
5.823661e-02
9.302952e-01
7.961701e-01
6.783385e-01
5.800350e-01
5.000000e-01
4.353198e-01
3.829217e-01
3.401469e-01
3.048739e-01
2.754696e-01
2.506929e-01
2.296030e-01
2.114826e-01
1.957814e-01
1.820726e-01
1.700221e-01
1.593657e-01
1.498926e-01
1.414329e-01
1.338485e-01
1.270265e-01
1.208738e-01
1.153133e-01
1.102805e-01
1.057217e-01
1.015916e-01
9.785223e-02
9.447152e-02
9.142254e-02
8.868267e-02
8.623308e-02
8.405817e-02
8.214525e-02
8.048423e-02
7.906736e-02
7.788906e-02
7.694579e-02
7.623598e-02
7.575994e-02
7.551986e-02
9.437158e-01
8.329120e-01
7.309571e-01
6.413391e-01
5.646802e-01
5.000000e-01
4.456811e-01
4.000163e-01
3.614573e-01
3.286958e-01
3.006639e-01
2.765053e-01
2.555378e-01
2.372185e-01
2.211137e-01
2.068760e-01
1.942248e-01
1.829325e-01
1.728132e-01
1.637141e-01
1.555086e-01
1.480917e-01
1.413758e-01
1.352870e-01
1.297635e-01
1.247531e-01
1.202115e-01
1.161014e-01
1.123914e-01
1.090549e-01
1.060700e-01
1.034182e-01
1.010847e-01
9.905762e-02
9.732785e-02
9.588891e-02
9.473673e-02
9.386954e-02
9.328787e-02
9.299451e-02
9.528619e-01
8.589300e-01
7.699896e-01
6.889674e-01
6.170783e-01
5.543189e-01
5.000000e-01
4.531394e-01
4.126997e-01
3.777104e-01
3.473169e-01
3.207923e-01
2.975295e-01
2.770262e-01
2.588685e-01
2.427158e-01
2.282871e-01
2.153500e-01
2.037117e-01
1.932117e-01
1.837154e-01
1.751101e-01
1.673008e-01
1.602072e-01
1.537612e-01
1.479052e-01
1.425902e-01
1.377747e-01
1.334235e-01
1.295070e-01
1.260003e-01
1.228830e-01
1.201382e-01
1.177526e-01
1.157160e-01
1.140213e-01
1.126639e-01
1.116420e-01
1.109565e-01
1.106108e-01
9.595086e-01
8.782370e-01
7.998405e-01
7.266172e-01
6.598531e-01
5.999837e-01
5.468606e-01
5.000000e-01
4.587654e-01
4.224841e-01
3.905126e-01
3.622672e-01
3.372358e-01
3.149769e-01
2.951145e-01
2.773300e-01
2.613548e-01
2.469618e-01
2.339597e-01
2.221864e-01
2.115048e-01
2.017986e-01
1.929688e-01
1.849310e-01
1.776132e-01
1.709542e-01
1.649015e-01
1.594105e-01
1.544433e-01
1.499678e-01
1.459572e-01
1.423891e-01
1.392453e-01
1.365114e-01
1.341763e-01
1.322325e-01
1.306750e-01
1.295023e-01
1.287154e-01
1.283185e-01
9.645621e-01
8.931003e-01
8.232892e-01
7.569070e-01
6.951261e-01
6.385427e-01
5.873002e-01
5.412346e-01
5.000000e-01
4.631633e-01
4.302662e-01
4.008632e-01
3.745411e-01
3.509284e-01
3.296972e-01
3.105612e-01
2.932729e-01
2.776188e-01
2.634153e-01
2.505049e-01
2.387521e-01
2.280408e-01
2.182710e-01
2.093571e-01
2.012251e-01
1.938118e-01
1.870627e-01
1.809313e-01
1.753778e-01
1.703685e-01
1.658752e-01
1.618743e-01
1.583466e-01
1.552769e-01
1.526538e-01
1.504690e-01
1.487180e-01
1.473991e-01
1.465140e-01
1.460675e-01
9.685350e-01
9.048801e-01
8.421353e-01
7.816819e-01
7.245304e-01
6.713042e-01
6.222896e-01
5.775158e-01
5.368367e-01
5.000000e-01
4.666994e-01
4.366109e-01
4.094150e-01
3.848109e-01
3.625226e-01
3.423016e-01
3.239273e-01
3.072049e-01
2.919641e-01
2.780557e-01
2.653501e-01
2.537345e-01
2.431108e-01
2.333939e-01
2.245103e-01
2.163962e-01
2.089964e-01
2.022637e-01
1.961574e-01
1.906430e-01
1.856914e-01
1.812784e-01
1.773842e-01
1.739934e-01
1.710941e-01
1.686782e-01
1.667412e-01
1.652818e-01
1.643023e-01
1.638080e-01
9.717402e-01
9.144364e-01
8.575787e-01
8.022515e-01
7.493070e-01
6.993361e-01
6.526831e-01
6.094874e-01
5.697338e-01
5.333005e-01
5.000000e-01
4.696091e-01
4.418916e-01
4.166125e-01
3.935473e-01
3.724870e-01
3.532405e-01
3.356353e-01
3.195172e-01
3.047492e-01
2.912099e-01
2.787927e-01
2.674035e-01
2.569601e-01
2.473907e-01
2.386325e-01
2.306311e-01
2.233393e-01
2.167165e-01
2.107283e-01
2.053452e-01
2.005430e-01
1.963019e-01
1.926063e-01
1.894444e-01
1.868085e-01
1.846941e-01
1.831006e-01
1.820307e-01
1.814908e-01
9.743797e-01
9.223378e-01
8.704433e-01
8.195584e-01
7.703970e-01
7.234947e-01
6.792077e-01
6.377328e-01
5.991368e-01
5.633891e-01
5.303909e-01
5.000000e-01
4.720503e-01
4.463654e-01
4.227687e-01
4.010896e-01
3.811672e-01
3.628526e-01
3.460099e-01
3.305158e-01
3.162597e-01
3.031428e-01
2.910770e-01
2.799846e-01
2.697968e-01
2.604533e-01
2.519012e-01
2.440947e-01
2.369940e-01
2.305652e-01
2.247795e-01
2.196128e-01
2.150458e-01
2.110631e-01
2.076534e-01
2.048093e-01
2.025271e-01
2.008064e-01
1.996510e-01
1.990678e-01
9.765901e-01
9.289745e-01
8.813100e-01
8.342916e-01
7.885174e-01
7.444621e-01
7.024705e-01
6.627642e-01
6.254589e-01
5.905850e-01
5.581084e-01
5.279497e-01
5.000000e-01
4.741331e-01
4.502150e-01
4.281107e-01
4.076886e-01
3.888235e-01
3.713981e-01
3.553044e-01
3.404436e-01
3.267260e-01
3.140711e-01
3.024065e-01
2.916680e-01
2.817985e-01
2.727478e-01
2.644721e-01
2.569333e-01
2.500986e-01
2.439401e-01
2.384349e-01
2.335641e-01
2.293132e-01
2.256715e-01
2.226322e-01
2.201921e-01
2.183518e-01
2.171157e-01
2.164918e-01
9.784669e-01
9.346227e-01
8.905990e-01
8.469634e-01
8.042186e-01
7.627815e-01
7.229738e-01
6.850231e-01
6.490716e-01
6.151891e-01
5.833874e-01
5.536346e-01
5.258669e-01
5.000000e-01
4.759368e-01
4.535742e-01
4.328076e-01
4.135345e-01
3.956563e-01
3.790804e-01
3.637203e-01
3.494965e-01
3.363366e-01
3.241747e-01
3.129519e-01
3.026153e-01
2.931181e-01
2.844191e-01
2.764824e-01
2.692771e-01
2.627768e-01
2.569597e-01
2.518082e-01
2.473086e-01
2.434512e-01
2.402300e-01
2.376427e-01
2.356907e-01
2.343792e-01
2.337171e-01
9.800791e-01
9.394832e-01
8.986207e-01
8.579604e-01
8.179274e-01
7.788863e-01
7.411315e-01
7.048855e-01
6.703028e-01
6.374774e-01
6.064526e-01
5.772312e-01
5.497850e-01
5.240632e-01
5.000000e-01
4.775201e-01
4.565433e-01
4.369881e-01
4.187738e-01
4.018227e-01
3.860610e-01
3.714195e-01
3.578344e-01
3.452471e-01
3.336043e-01
3.228581e-01
3.129654e-01
3.038885e-01
2.955942e-01
2.880536e-01
2.812425e-01
2.751407e-01
2.697318e-01
2.650035e-01
2.609471e-01
2.575578e-01
2.548342e-01
2.527786e-01
2.513972e-01
2.506997e-01
9.814776e-01
9.437055e-01
9.056089e-01
8.675790e-01
8.299779e-01
7.931240e-01
7.572842e-01
7.226699e-01
6.894388e-01
6.576984e-01
6.275130e-01
5.989104e-01
5.718892e-01
5.464258e-01
5.224799e-01
5.000000e-01
4.789274e-01
4.591995e-01
4.407523e-01
4.235223e-01
4.074479e-01
3.924705e-01
3.785349e-01
3.655898e-01
3.535883e-01
3.424876e-01
3.322491e-01
3.228386e-01
3.142260e-01
3.063852e-01
2.992941e-01
2.929344e-01
2.872916e-01
2.823546e-01
2.781163e-01
2.745728e-01
2.717239e-01
2.695730e-01
2.681272e-01
2.673970e-01
9.827008e-01
9.474031e-01
9.117427e-01
8.760497e-01
8.406342e-01
8.057752e-01
7.717129e-01
7.386452e-01
7.067271e-01
6.760727e-01
6.467595e-01
6.188328e-01
5.923113e-01
5.671923e-01
5.434566e-01
5.210726e-01
5.000000e-01
4.801931e-01
4.616030e-01
4.441794e-01
4.278724e-01
4.126335e-01
3.984160e-01
3.851763e-01
3.728737e-01
3.614707e-01
3.509337e-01
3.412322e-01
3.323396e-01
3.242326e-01
3.168918e-01
3.103008e-01
3.044472e-01
2.993215e-01
2.949180e-01
2.912342e-01
2.882711e-01
2.860332e-01
2.845284e-01
2.837683e-01
9.837783e-01
9.506635e-01
9.171616e-01
8.835537e-01
8.501074e-01
8.170675e-01
7.846500e-01
7.530381e-01
7.223812e-01
6.927950e-01
6.643647e-01
6.371474e-01
6.111765e-01
5.864655e-01
5.630118e-01
5.408004e-01
5.198069e-01
5.000000e-01
4.813443e-01
4.638018e-01
4.473332e-01
4.318996e-01
4.174628e-01
4.039864e-01
3.914360e-01
3.797799e-01
3.689890e-01
3.590370e-01
3.499009e-01
3.415606e-01
3.339992e-01
3.272028e-01
3.211609e-01
3.158660e-01
3.113138e-01
3.075034e-01
3.044371e-01
3.021202e-01
3.005620e-01
2.997748e-01
9.847332e-01
9.535552e-01
9.219754e-01
8.902353e-01
8.585671e-01
8.271867e-01
7.962882e-01
7.660403e-01
7.365847e-01
7.080359e-01
6.804827e-01
6.539901e-01
6.286018e-01
6.043436e-01
5.812261e-01
5.592476e-01
5.383970e-01
5.186556e-01
5.000000e-01
4.824028e-01
4.658348e-01
4.502659e-01
4.356659e-01
4.220055e-01
4.092564e-01
3.973924e-01
3.863892e-01
3.762248e-01
3.668798e-01
3.583373e-01
3.505831e-01
3.436061e-01
3.373977e-01
3.319525e-01
3.272678e-01
3.233441e-01
3.201851e-01
3.177973e-01
3.161910e-01
3.153794e-01
9.855838e-01
9.561327e-01
9.262719e-01
8.962105e-01
8.661515e-01
8.362859e-01
8.067883e-01
7.778136e-01
7.494951e-01
7.219442e-01
6.952508e-01
6.694842e-01
6.446955e-01
6.209196e-01
5.981772e-01
5.764776e-01
5.558205e-01
5.361982e-01
5.175972e-01
5.000000e-01
4.833863e-01
4.677341e-01
4.530207e-01
4.392234e-01
4.263201e-01
4.142896e-01
4.031126e-01
3.927711e-01
3.832494e-01
3.745340e-01
3.666136e-01
3.594794e-01
3.531254e-01
3.475478e-01
3.427460e-01
3.387219e-01
3.354804e-01
3.330296e-01
3.313803e-01
3.305468e-01
9.863446e-01
9.584396e-01
9.301217e-01
9.015735e-01
8.729735e-01
8.444914e-01
8.162846e-01
7.884951e-01
7.612479e-01
7.346498e-01
7.087900e-01
6.837402e-01
6.595563e-01
6.362797e-01
6.139390e-01
5.925520e-01
5.721275e-01
5.526667e-01
5.341651e-01
5.166136e-01
5.000000e-01
4.843095e-01
4.695264e-01
4.556341e-01
4.426162e-01
4.304567e-01
4.191407e-01
4.086546e-01
3.989861e-01
3.901251e-01
3.820631e-01
3.747939e-01
3.683138e-01
3.626211e-01
3.577168e-01
3.536044e-01
3.502904e-01
3.477837e-01
3.460965e-01
3.452437e-01
9.870275e-01
9.605113e-01
9.335824e-01
9.064014e-01
8.791261e-01
8.519082e-01
8.248899e-01
7.982013e-01
7.719592e-01
7.462655e-01
7.212073e-01
6.968572e-01
6.732739e-01
6.505034e-01
6.285804e-01
6.075294e-01
5.873664e-01
5.681003e-01
5.497340e-01
5.322658e-01
5.156904e-01
5.000000e-01
4.851847e-01
4.712341e-01
4.581368e-01
4.458817e-01
4.344584e-01
4.238570e-01
4.140691e-01
4.050875e-01
3.969067e-01
3.895232e-01
3.829352e-01
3.771434e-01
3.721504e-01
3.679614e-01
3.645840e-01
3.620286e-01
3.603081e-01
3.594384e-01
9.876422e-01
9.623767e-01
9.367012e-01
9.107577e-01
8.846867e-01
8.586242e-01
8.326992e-01
8.070312e-01
7.817289e-01
7.568892e-01
7.325965e-01
7.089229e-01
6.859288e-01
6.636634e-01
6.421655e-01
6.214650e-01
6.015839e-01
5.825371e-01
5.643340e-01
5.469792e-01
5.304735e-01
5.148152e-01
4.999999e-01
4.860225e-01
4.728765e-01
4.605554e-01
4.490527e-01
4.383625e-01
4.284798e-01
4.194004e-01
4.111218e-01
4.036428e-01
3.969640e-01
3.910879e-01
3.860190e-01
3.817641e-01
3.783321e-01
3.757344e-01
3.739850e-01
3.731006e-01
9.881965e-01
9.640596e-01
9.395170e-01
9.146950e-01
8.897195e-01
8.647130e-01
8.397928e-01
8.150690e-01
7.906429e-01
7.666060e-01
7.430398e-01
7.200154e-01
6.975934e-01
6.758252e-01
6.547528e-01
6.344101e-01
6.148236e-01
5.960135e-01
5.779945e-01
5.607765e-01
5.443658e-01
5.287658e-01
5.139774e-01
4.999999e-01
4.868316e-01
4.744701e-01
4.629127e-01
4.521572e-01
4.422017e-01
4.330451e-01
4.246875e-01
4.171303e-01
4.103761e-01
4.044294e-01
3.992965e-01
3.949856e-01
3.915070e-01
3.888732e-01
3.870990e-01
3.862020e-01
9.886970e-01
9.655798e-01
9.420622e-01
9.182572e-01
8.942783e-01
8.702364e-01
8.462388e-01
8.223867e-01
7.987748e-01
7.754896e-01
7.526093e-01
7.302031e-01
7.083320e-01
6.870480e-01
6.663956e-01
6.464116e-01
6.271263e-01
6.085639e-01
5.907435e-01
5.736798e-01
5.573837e-01
5.418631e-01
5.271234e-01
5.131683e-01
4.999999e-01
4.876199e-01
4.760293e-01
4.652289e-01
4.552200e-01
4.460045e-01
4.375849e-01
4.299648e-01
4.231492e-01
4.171444e-01
4.119582e-01
4.076004e-01
4.040825e-01
4.014181e-01
3.996231e-01
3.987153e-01
9.891493e-01
9.669537e-01
9.443636e-01
9.214810e-01
8.984084e-01
8.752469e-01
8.520948e-01
8.290458e-01
8.061881e-01
7.836038e-01
7.613674e-01
7.395467e-01
7.182015e-01
6.973846e-01
6.771419e-01
6.575124e-01
6.385292e-01
6.202200e-01
6.026075e-01
5.857103e-01
5.695432e-01
5.541181e-01
5.394445e-01
5.255298e-01
5.123799e-01
4.999999e-01
4.883941e-01
4.775665e-01
4.675212e-01
4.582627e-01
4.497960e-01
4.421269e-01
4.352624e-01
4.292105e-01
4.239808e-01
4.195843e-01
4.160339e-01
4.133440e-01
4.115314e-01
4.106146e-01
9.895578e-01
9.681950e-01
9.464439e-01
9.243971e-01
9.021478e-01
8.797885e-01
8.574097e-01
8.350985e-01
8.129372e-01
7.910035e-01
7.693689e-01
7.480987e-01
7.272521e-01
7.068818e-01
6.870345e-01
6.677509e-01
6.490662e-01
6.310109e-01
6.136107e-01
5.968873e-01
5.808592e-01
5.655415e-01
5.509472e-01
5.370871e-01
5.239706e-01
5.116058e-01
4.999999e-01
4.891600e-01
4.790927e-01
4.698050e-01
4.613042e-01
4.535982e-01
4.466958e-01
4.406067e-01
4.353421e-01
4.309143e-01
4.273373e-01
4.246265e-01
4.227994e-01
4.218752e-01
9.899263e-01
9.693151e-01
9.483219e-01
9.270313e-01
9.055285e-01
8.838986e-01
8.622253e-01
8.405894e-01
8.190687e-01
7.977363e-01
7.766607e-01
7.559052e-01
7.355278e-01
7.155808e-01
6.961114e-01
6.771614e-01
6.587677e-01
6.409629e-01
6.237751e-01
6.072288e-01
5.913453e-01
5.761429e-01
5.616374e-01
5.478427e-01
5.347710e-01
5.224334e-01
5.108399e-01
4.999999e-01
4.899228e-01
4.806176e-01
4.720938e-01
4.643612e-01
4.574305e-01
4.513129e-01
4.460210e-01
4.415684e-01
4.379700e-01
4.352423e-01
4.334035e-01
4.324733e-01
9.902581e-01
9.703236e-01
9.500135e-01
9.294053e-01
9.085774e-01
8.876086e-01
8.665764e-01
8.455566e-01
8.246222e-01
8.038426e-01
7.832834e-01
7.630059e-01
7.430666e-01
7.235175e-01
7.044058e-01
6.857740e-01
6.676603e-01
6.500990e-01
6.331201e-01
6.167505e-01
6.010138e-01
5.859308e-01
5.715201e-01
5.577982e-01
5.447799e-01
5.324787e-01
5.209071e-01
5.100771e-01
4.999999e-01
4.906869e-01
4.821495e-01
4.743992e-01
4.674483e-01
4.613096e-01
4.559970e-01
4.515251e-01
4.479101e-01
4.451691e-01
4.433209e-01
4.423859e-01
9.905558e-01
9.712286e-01
9.515320e-01
9.315373e-01
9.113173e-01
8.909450e-01
8.704930e-01
8.500321e-01
8.296314e-01
8.093570e-01
7.892717e-01
7.694347e-01
7.499014e-01
7.307229e-01
7.119463e-01
6.936147e-01
6.757673e-01
6.584393e-01
6.416626e-01
6.254659e-01
6.098748e-01
5.949124e-01
5.805995e-01
5.669547e-01
5.539954e-01
5.417372e-01
5.301948e-01
5.193823e-01
5.093129e-01
4.999999e-01
4.914564e-01
4.836957e-01
4.767315e-01
4.705780e-01
4.652502e-01
4.607640e-01
4.571362e-01
4.543849e-01
4.525295e-01
4.515907e-01
9.908216e-01
9.720368e-01
9.528882e-01
9.334424e-01
9.137669e-01
8.939300e-01
8.739996e-01
8.540428e-01
8.341247e-01
8.143086e-01
7.946547e-01
7.752205e-01
7.560598e-01
7.372231e-01
7.187574e-01
7.007058e-01
6.831081e-01
6.660007e-01
6.494168e-01
6.333863e-01
6.179368e-01
6.030932e-01
5.888781e-01
5.753123e-01
5.624150e-01
5.502039e-01
5.386956e-01
5.279061e-01
5.178504e-01
5.085434e-01
4.999999e-01
4.922347e-01
4.852627e-01
4.790996e-01
4.737613e-01
4.692647e-01
4.656275e-01
4.628685e-01
4.610076e-01
4.600660e-01
9.910572e-01
9.727535e-01
9.540914e-01
9.351331e-01
9.159418e-01
8.965818e-01
8.771170e-01
8.576109e-01
8.381256e-01
8.187216e-01
7.994569e-01
7.803871e-01
7.615650e-01
7.430402e-01
7.248593e-01
7.070655e-01
6.896991e-01
6.727971e-01
6.563938e-01
6.405204e-01
6.252059e-01
6.104767e-01
5.963571e-01
5.828696e-01
5.700351e-01
5.578730e-01
5.464016e-01
5.356386e-01
5.256006e-01
5.163041e-01
5.077652e-01
4.999999e-01
4.930247e-01
4.868560e-01
4.815109e-01
4.770073e-01
4.733635e-01
4.705990e-01
4.687341e-01
4.677903e-01
9.912643e-01
9.733833e-01
9.551489e-01
9.366194e-01
9.178547e-01
8.989153e-01
8.798618e-01
8.607547e-01
8.416533e-01
8.226157e-01
8.036980e-01
7.849542e-01
7.664358e-01
7.481917e-01
7.302682e-01
7.127083e-01
6.955527e-01
6.788390e-01
6.626022e-01
6.468745e-01
6.316861e-01
6.170646e-01
6.030359e-01
5.896238e-01
5.768507e-01
5.647375e-01
5.533041e-01
5.425694e-01
5.325515e-01
5.232683e-01
5.147371e-01
5.069752e-01
4.999999e-01
4.938289e-01
4.884801e-01
4.839720e-01
4.803239e-01
4.775555e-01
4.756878e-01
4.747425e-01
9.914440e-01
9.739297e-01
9.560665e-01
9.379097e-01
9.195157e-01
9.009424e-01
8.822474e-01
8.634886e-01
8.447230e-01
8.260065e-01
8.073936e-01
7.889369e-01
7.706867e-01
7.526913e-01
7.349965e-01
7.176453e-01
7.006784e-01
6.841339e-01
6.680474e-01
6.524521e-01
6.373788e-01
6.228565e-01
6.089120e-01
5.955705e-01
5.828555e-01
5.707893e-01
5.593931e-01
5.486869e-01
5.386902e-01
5.294218e-01
5.209003e-01
5.131439e-01
5.061709e-01
4.999999e-01
4.946496e-01
4.901391e-01
4.864882e-01
4.837174e-01
4.818479e-01
4.809016e-01
9.915971e-01
9.743955e-01
9.568489e-01
9.390099e-01
9.209326e-01
9.026721e-01
8.842839e-01
8.658236e-01
8.473462e-01
8.289058e-01
8.105555e-01
7.923465e-01
7.743284e-01
7.565487e-01
7.390528e-01
7.218836e-01
7.050819e-01
6.886861e-01
6.727321e-01
6.572539e-01
6.422831e-01
6.278495e-01
6.139809e-01
6.007034e-01
5.880417e-01
5.760191e-01
5.646577e-01
5.539788e-01
5.440029e-01
5.347496e-01
5.262386e-01
5.184889e-01
5.115197e-01
5.053502e-01
4.999999e-01
4.954885e-01
4.918362e-01
4.890640e-01
4.871932e-01
4.862463e-01
9.917243e-01
9.747827e-01
9.574993e-01
9.399247e-01
9.221109e-01
9.041111e-01
8.859787e-01
8.677675e-01
8.495309e-01
8.313217e-01
8.131915e-01
7.951906e-01
7.773678e-01
7.597700e-01
7.424421e-01
7.254271e-01
7.087657e-01
6.924964e-01
6.766558e-01
6.612780e-01
6.463954e-01
6.320385e-01
6.182358e-01
6.050143e-01
5.923995e-01
5.804155e-01
5.690855e-01
5.584315e-01
5.484747e-01
5.392359e-01
5.307352e-01
5.229925e-01
5.160278e-01
5.098607e-01
5.045113e-01
4.999999e-01
4.963471e-01
4.935741e-01
4.917028e-01
4.907555e-01
9.918262e-01
9.750925e-01
9.580197e-01
9.406568e-01
9.230542e-01
9.052632e-01
8.873361e-01
8.693249e-01
8.512820e-01
8.332587e-01
8.153058e-01
7.974729e-01
7.798079e-01
7.623573e-01
7.451657e-01
7.282760e-01
7.117288e-01
6.955628e-01
6.798148e-01
6.645194e-01
6.497095e-01
6.354159e-01
6.216678e-01
6.084929e-01
5.959173e-01
5.839660e-01
5.726626e-01
5.620299e-01
5.520898e-01
5.428637e-01
5.343723e-01
5.266363e-01
5.196760e-01
5.135116e-01
5.081636e-01
5.036527e-01
4.999999e-01
4.972267e-01
4.953550e-01
4.944076e-01
9.919028e-01
9.753255e-01
9.584112e-01
9.412077e-01
9.237640e-01
9.061304e-01
8.883579e-01
8.704977e-01
8.526008e-01
8.347181e-01
8.168993e-01
7.991935e-01
7.816481e-01
7.643092e-01
7.472213e-01
7.304269e-01
7.139667e-01
6.978797e-01
6.822025e-01
6.669703e-01
6.522161e-01
6.379713e-01
6.242655e-01
6.111267e-01
5.985817e-01
5.866558e-01
5.753733e-01
5.647575e-01
5.548308e-01
5.456149e-01
5.371313e-01
5.294008e-01
5.224443e-01
5.162824e-01
5.109359e-01
5.064257e-01
5.027731e-01
4.999999e-01
4.981282e-01
4.971806e-01
9.919541e-01
9.754818e-01
9.586738e-01
9.415771e-01
9.242400e-01
9.067121e-01
8.890434e-01
8.712846e-01
8.534859e-01
8.356977e-01
8.179692e-01
8.003490e-01
7.828842e-01