# vtk DataFile Version 3.0
CD_1JC
ASCII
DATASET STRUCTURED_GRID
DIMENSIONS 81 81 1
POINTS 6561 double
0.000000e+00 0.000000e+00 0.0
1.250000e-02 0.000000e+00 0.0
2.500000e-02 0.000000e+00 0.0
3.750000e-02 0.000000e+00 0.0
5.000000e-02 0.000000e+00 0.0
6.250000e-02 0.000000e+00 0.0
7.500000e-02 0.000000e+00 0.0
8.750000e-02 0.000000e+00 0.0
1.000000e-01 0.000000e+00 0.0
1.125000e-01 0.000000e+00 0.0
1.250000e-01 0.000000e+00 0.0
1.375000e-01 0.000000e+00 0.0
1.500000e-01 0.000000e+00 0.0
1.625000e-01 0.000000e+00 0.0
1.750000e-01 0.000000e+00 0.0
1.875000e-01 0.000000e+00 0.0
2.000000e-01 0.000000e+00 0.0
2.125000e-01 0.000000e+00 0.0
2.250000e-01 0.000000e+00 0.0
2.375000e-01 0.000000e+00 0.0
2.500000e-01 0.000000e+00 0.0
2.625000e-01 0.000000e+00 0.0
2.750000e-01 0.000000e+00 0.0
2.875000e-01 0.000000e+00 0.0
3.000000e-01 0.000000e+00 0.0
3.125000e-01 0.000000e+00 0.0
3.250000e-01 0.000000e+00 0.0
3.375000e-01 0.000000e+00 0.0
3.500000e-01 0.000000e+00 0.0
3.625000e-01 0.000000e+00 0.0
3.750000e-01 0.000000e+00 0.0
3.875000e-01 0.000000e+00 0.0
4.000000e-01 0.000000e+00 0.0
4.125000e-01 0.000000e+00 0.0
4.250000e-01 0.000000e+00 0.0
4.375000e-01 0.000000e+00 0.0
4.500000e-01 0.000000e+00 0.0
4.625000e-01 0.000000e+00 0.0
4.750000e-01 0.000000e+00 0.0
4.875000e-01 0.000000e+00 0.0
5.000000e-01 0.000000e+00 0.0
5.125000e-01 0.000000e+00 0.0
5.250000e-01 0.000000e+00 0.0
5.375000e-01 0.000000e+00 0.0
5.500000e-01 0.000000e+00 0.0
5.625000e-01 0.000000e+00 0.0
5.750000e-01 0.000000e+00 0.0
5.875000e-01 0.000000e+00 0.0
6.000000e-01 0.000000e+00 0.0
6.125000e-01 0.000000e+00 0.0
6.250000e-01 0.000000e+00 0.0
6.375000e-01 0.000000e+00 0.0
6.500000e-01 0.000000e+00 0.0
6.625000e-01 0.000000e+00 0.0
6.750000e-01 0.000000e+00 0.0
6.875000e-01 0.000000e+00 0.0
7.000000e-01 0.000000e+00 0.0
7.125000e-01 0.000000e+00 0.0
7.250000e-01 0.000000e+00 0.0
7.375000e-01 0.000000e+00 0.0
7.500000e-01 0.000000e+00 0.0
7.625000e-01 0.000000e+00 0.0
7.750000e-01 0.000000e+00 0.0
7.875000e-01 0.000000e+00 0.0
8.000000e-01 0.000000e+00 0.0
8.125000e-01 0.000000e+00 0.0
8.250000e-01 0.000000e+00 0.0
8.375000e-01 0.000000e+00 0.0
8.500000e-01 0.000000e+00 0.0
8.625000e-01 0.000000e+00 0.0
8.750000e-01 0.000000e+00 0.0
8.875000e-01 0.000000e+00 0.0
9.000000e-01 0.000000e+00 0.0
9.125000e-01 0.000000e+00 0.0
9.250000e-01 0.000000e+00 0.0
9.375000e-01 0.000000e+00 0.0
9.500000e-01 0.000000e+00 0.0
9.625000e-01 0.000000e+00 0.0
9.750000e-01 0.000000e+00 0.0
9.875000e-01 0.000000e+00 0.0
1.000000e+00 0.000000e+00 0.0
0.000000e+00 1.250000e-02 0.0
1.250000e-02 1.250000e-02 0.0
2.500000e-02 1.250000e-02 0.0
3.750000e-02 1.250000e-02 0.0
5.000000e-02 1.250000e-02 0.0
6.250000e-02 1.250000e-02 0.0
7.500000e-02 1.250000e-02 0.0
8.750000e-02 1.250000e-02 0.0
1.000000e-01 1.250000e-02 0.0
1.125000e-01 1.250000e-02 0.0
1.250000e-01 1.250000e-02 0.0
1.375000e-01 1.250000e-02 0.0
1.500000e-01 1.250000e-02 0.0
1.625000e-01 1.250000e-02 0.0
1.750000e-01 1.250000e-02 0.0
1.875000e-01 1.250000e-02 0.0
2.000000e-01 1.250000e-02 0.0
2.125000e-01 1.250000e-02 0.0
2.250000e-01 1.250000e-02 0.0
2.375000e-01 1.250000e-02 0.0
2.500000e-01 1.250000e-02 0.0
2.625000e-01 1.250000e-02 0.0
2.750000e-01 1.250000e-02 0.0
2.875000e-01 1.250000e-02 0.0
3.000000e-01 1.250000e-02 0.0
3.125000e-01 1.250000e-02 0.0
3.250000e-01 1.250000e-02 0.0
3.375000e-01 1.250000e-02 0.0
3.500000e-01 1.250000e-02 0.0
3.625000e-01 1.250000e-02 0.0
3.750000e-01 1.250000e-02 0.0
3.875000e-01 1.250000e-02 0.0
4.000000e-01 1.250000e-02 0.0
4.125000e-01 1.250000e-02 0.0
4.250000e-01 1.250000e-02 0.0
4.375000e-01 1.250000e-02 0.0
4.500000e-01 1.250000e-02 0.0
4.625000e-01 1.250000e-02 0.0
4.750000e-01 1.250000e-02 0.0
4.875000e-01 1.250000e-02 0.0
5.000000e-01 1.250000e-02 0.0
5.125000e-01 1.250000e-02 0.0
5.250000e-01 1.250000e-02 0.0
5.375000e-01 1.250000e-02 0.0
5.500000e-01 1.250000e-02 0.0
5.625000e-01 1.250000e-02 0.0
5.750000e-01 1.250000e-02 0.0
5.875000e-01 1.250000e-02 0.0
6.000000e-01 1.250000e-02 0.0
6.125000e-01 1.250000e-02 0.0
6.250000e-01 1.250000e-02 0.0
6.375000e-01 1.250000e-02 0.0
6.500000e-01 1.250000e-02 0.0
6.625000e-01 1.250000e-02 0.0
6.750000e-01 1.250000e-02 0.0
6.875000e-01 1.250000e-02 0.0
7.000000e-01 1.250000e-02 0.0
7.125000e-01 1.250000e-02 0.0
7.250000e-01 1.250000e-02 0.0
7.375000e-01 1.250000e-02 0.0
7.500000e-01 1.250000e-02 0.0
7.625000e-01 1.250000e-02 0.0
7.750000e-01 1.250000e-02 0.0
7.875000e-01 1.250000e-02 0.0
8.000000e-01 1.250000e-02 0.0
8.125000e-01 1.250000e-02 0.0
8.250000e-01 1.250000e-02 0.0
8.375000e-01 1.250000e-02 0.0
8.500000e-01 1.250000e-02 0.0
8.625000e-01 1.250000e-02 0.0
8.750000e-01 1.250000e-02 0.0
8.875000e-01 1.250000e-02 0.0
9.000000e-01 1.250000e-02 0.0
9.125000e-01 1.250000e-02 0.0
9.250000e-01 1.250000e-02 0.0
9.375000e-01 1.250000e-02 0.0
9.500000e-01 1.250000e-02 0.0
9.625000e-01 1.250000e-02 0.0
9.750000e-01 1.250000e-02 0.0
9.875000e-01 1.250000e-02 0.0
1.000000e+00 1.250000e-02 0.0
0.000000e+00 2.500000e-02 0.0
1.250000e-02 2.500000e-02 0.0
2.500000e-02 2.500000e-02 0.0
3.750000e-02 2.500000e-02 0.0
5.000000e-02 2.500000e-02 0.0
6.250000e-02 2.500000e-02 0.0
7.500000e-02 2.500000e-02 0.0
8.750000e-02 2.500000e-02 0.0
1.000000e-01 2.500000e-02 0.0
1.125000e-01 2.500000e-02 0.0
1.250000e-01 2.500000e-02 0.0
1.375000e-01 2.500000e-02 0.0
1.500000e-01 2.500000e-02 0.0
1.625000e-01 2.500000e-02 0.0
1.750000e-01 2.500000e-02 0.0
1.875000e-01 2.500000e-02 0.0
2.000000e-01 2.500000e-02 0.0
2.125000e-01 2.500000e-02 0.0
2.250000e-01 2.500000e-02 0.0
2.375000e-01 2.500000e-02 0.0
2.500000e-01 2.500000e-02 0.0
2.625000e-01 2.500000e-02 0.0
2.750000e-01 2.500000e-02 0.0
2.875000e-01 2.500000e-02 0.0
3.000000e-01 2.500000e-02 0.0
3.125000e-01 2.500000e-02 0.0
3.250000e-01 2.500000e-02 0.0
3.375000e-01 2.500000e-02 0.0
3.500000e-01 2.500000e-02 0.0
3.625000e-01 2.500000e-02 0.0
3.750000e-01 2.500000e-02 0.0
3.875000e-01 2.500000e-02 0.0
4.000000e-01 2.500000e-02 0.0
4.125000e-01 2.500000e-02 0.0
4.250000e-01 2.500000e-02 0.0
4.375000e-01 2.500000e-02 0.0
4.500000e-01 2.500000e-02 0.0
4.625000e-01 2.500000e-02 0.0
4.750000e-01 2.500000e-02 0.0
4.875000e-01 2.500000e-02 0.0
5.000000e-01 2.500000e-02 0.0
5.125000e-01 2.500000e-02 0.0
5.250000e-01 2.500000e-02 0.0
5.375000e-01 2.500000e-02 0.0
5.500000e-01 2.500000e-02 0.0
5.625000e-01 2.500000e-02 0.0
5.750000e-01 2.500000e-02 0.0
5.875000e-01 2.500000e-02 0.0
6.000000e-01 2.500000e-02 0.0
6.125000e-01 2.500000e-02 0.0
6.250000e-01 2.500000e-02 0.0
6.375000e-01 2.500000e-02 0.0
6.500000e-01 2.500000e-02 0.0
6.625000e-01 2.500000e-02 0.0
6.750000e-01 2.500000e-02 0.0
6.875000e-01 2.500000e-02 0.0
7.000000e-01 2.500000e-02 0.0
7.125000e-01 2.500000e-02 0.0
7.250000e-01 2.500000e-02 0.0
7.375000e-01 2.500000e-02 0.0
7.500000e-01 2.500000e-02 0.0
7.625000e-01 2.500000e-02 0.0
7.750000e-01 2.500000e-02 0.0
7.875000e-01 2.500000e-02 0.0
8.000000e-01 2.500000e-02 0.0
8.125000e-01 2.500000e-02 0.0
8.250000e-01 2.500000e-02 0.0
8.375000e-01 2.500000e-02 0.0
8.500000e-01 2.500000e-02 0.0
8.625000e-01 2.500000e-02 0.0
8.750000e-01 2.500000e-02 0.0
8.875000e-01 2.500000e-02 0.0
9.000000e-01 2.500000e-02 0.0
9.125000e-01 2.500000e-02 0.0
9.250000e-01 2.500000e-02 0.0
9.375000e-01 2.500000e-02 0.0
9.500000e-01 2.500000e-02 0.0
9.625000e-01 2.500000e-02 0.0
9.750000e-01 2.500000e-02 0.0
9.875000e-01 2.500000e-02 0.0
1.000000e+00 2.500000e-02 0.0
0.000000e+00 3.750000e-02 0.0
1.250000e-02 3.750000e-02 0.0
2.500000e-02 3.750000e-02 0.0
3.750000e-02 3.750000e-02 0.0
5.000000e-02 3.750000e-02 0.0
6.250000e-02 3.750000e-02 0.0
7.500000e-02 3.750000e-02 0.0
8.750000e-02 3.750000e-02 0.0
1.000000e-01 3.750000e-02 0.0
1.125000e-01 3.750000e-02 0.0
1.250000e-01 3.750000e-02 0.0
1.375000e-01 3.750000e-02 0.0
1.500000e-01 3.750000e-02 0.0
1.625000e-01 3.750000e-02 0.0
1.750000e-01 3.750000e-02 0.0
1.875000e-01 3.750000e-02 0.0
2.000000e-01 3.750000e-02 0.0
2.125000e-01 3.750000e-02 0.0
2.250000e-01 3.750000e-02 0.0
2.375000e-01 3.750000e-02 0.0
2.500000e-01 3.750000e-02 0.0
2.625000e-01 3.750000e-02 0.0
2.750000e-01 3.750000e-02 0.0
2.875000e-01 3.750000e-02 0.0
3.000000e-01 3.750000e-02 0.0
3.125000e-01 3.750000e-02 0.0
3.250000e-01 3.750000e-02 0.0
3.375000e-01 3.750000e-02 0.0
3.500000e-01 3.750000e-02 0.0
3.625000e-01 3.750000e-02 0.0
3.750000e-01 3.750000e-02 0.0
3.875000e-01 3.750000e-02 0.0
4.000000e-01 3.750000e-02 0.0
4.125000e-01 3.750000e-02 0.0
4.250000e-01 3.750000e-02 0.0
4.375000e-01 3.750000e-02 0.0
4.500000e-01 3.750000e-02 0.0
4.625000e-01 3.750000e-02 0.0
4.750000e-01 3.750000e-02 0.0
4.875000e-01 3.750000e-02 0.0
5.000000e-01 3.750000e-02 0.0
5.125000e-01 3.750000e-02 0.0
5.250000e-01 3.750000e-02 0.0
5.375000e-01 3.750000e-02 0.0
5.500000e-01 3.750000e-02 0.0
5.625000e-01 3.750000e-02 0.0
5.750000e-01 3.750000e-02 0.0
5.875000e-01 3.750000e-02 0.0
6.000000e-01 3.750000e-02 0.0
6.125000e-01 3.750000e-02 0.0
6.250000e-01 3.750000e-02 0.0
6.375000e-01 3.750000e-02 0.0
6.500000e-01 3.750000e-02 0.0
6.625000e-01 3.750000e-02 0.0
6.750000e-01 3.750000e-02 0.0
6.875000e-01 3.750000e-02 0.0
7.000000e-01 3.750000e-02 0.0
7.125000e-01 3.750000e-02 0.0
7.250000e-01 3.750000e-02 0.0
7.375000e-01 3.750000e-02 0.0
7.500000e-01 3.750000e-02 0.0
7.625000e-01 3.750000e-02 0.0
7.750000e-01 3.750000e-02 0.0
7.875000e-01 3.750000e-02 0.0
8.000000e-01 3.750000e-02 0.0
8.125000e-01 3.750000e-02 0.0
8.250000e-01 3.750000e-02 0.0
8.375000e-01 3.750000e-02 0.0
8.500000e-01 3.750000e-02 0.0
8.625000e-01 3.750000e-02 0.0
8.750000e-01 3.750000e-02 0.0
8.875000e-01 3.750000e-02 0.0
9.000000e-01 3.750000e-02 0.0
9.125000e-01 3.750000e-02 0.0
9.250000e-01 3.750000e-02 0.0
9.375000e-01 3.750000e-02 0.0
9.500000e-01 3.750000e-02 0.0
9.625000e-01 3.750000e-02 0.0
9.750000e-01 3.750000e-02 0.0
9.875000e-01 3.750000e-02 0.0
1.000000e+00 3.750000e-02 0.0
0.000000e+00 5.000000e-02 0.0
1.250000e-02 5.000000e-02 0.0
2.500000e-02 5.000000e-02 0.0
3.750000e-02 5.000000e-02 0.0
5.000000e-02 5.000000e-02 0.0
[...]
CELL_DATA 6400
SCALARS Temperature double 1
LOOKUP_TABLE default
5.000000e-01
2.261281e-01
1.328846e-01
9.239876e-02
7.074949e-02
5.734047e-02
4.819583e-02
4.154559e-02
3.648551e-02
3.250377e-02
2.928791e-02
2.663595e-02
2.441138e-02
2.251856e-02
2.088846e-02
1.946999e-02
1.822452e-02
1.712229e-02
1.614004e-02
1.525927e-02
1.446512e-02
1.374550e-02
1.309048e-02
1.249184e-02
1.194268e-02
1.143721e-02
1.097050e-02
1.053837e-02
1.013719e-02
9.763864e-03
9.415672e-03
9.090260e-03
8.785562e-03
8.499761e-03
8.231253e-03
7.978616e-03
7.740587e-03
7.516041e-03
7.303968e-03
7.103467e-03
6.913726e-03
6.734014e-03
6.563670e-03
6.402098e-03
6.248755e-03
6.103151e-03
5.964839e-03
5.833411e-03
5.708498e-03
5.589760e-03
5.476889e-03
5.369602e-03
5.267642e-03
5.170771e-03
5.078774e-03
4.991453e-03
4.908628e-03
4.830134e-03
4.755820e-03
4.685549e-03
4.619197e-03
4.556649e-03
4.497805e-03
4.442572e-03
4.390868e-03
4.342620e-03
4.297763e-03
4.256240e-03
4.218003e-03
4.183012e-03
4.151233e-03
4.122639e-03
4.097211e-03
4.074936e-03
4.055808e-03
4.039828e-03
4.027003e-03
4.017346e-03
4.010880e-03
4.007629e-03
7.738719e-01
5.000000e-01
3.480660e-01
2.601750e-01
2.055158e-01
1.690309e-01
1.431906e-01
1.240081e-01
1.092324e-01
9.751307e-02
8.799618e-02
8.011718e-02
7.348853e-02
6.783567e-02
6.295875e-02
5.870893e-02
5.497311e-02
5.166380e-02
4.871232e-02
4.606399e-02
4.367474e-02
4.150864e-02
3.953616e-02
3.773275e-02
3.607788e-02
3.455422e-02
3.314706e-02
3.184383e-02
3.063372e-02
2.950739e-02
2.845673e-02
2.747466e-02
2.655498e-02
2.569223e-02
2.488159e-02
2.411878e-02
2.340002e-02
2.272191e-02
2.208141e-02
2.147582e-02
2.090269e-02
2.035982e-02
1.984522e-02
1.935709e-02
1.889380e-02
1.845387e-02
1.803595e-02
1.763882e-02
1.726136e-02
1.690254e-02
1.656145e-02
1.623722e-02
1.592907e-02
1.563630e-02
1.535826e-02
1.509434e-02
1.484400e-02
1.460675e-02
1.438213e-02
1.416972e-02
1.396916e-02
1.378009e-02
1.360222e-02
1.343526e-02
1.327896e-02
1.313311e-02
1.299751e-02
1.287199e-02
1.275640e-02
1.265062e-02
1.255455e-02
1.246811e-02
1.239123e-02
1.232389e-02
1.226607e-02
1.221776e-02
1.217899e-02
1.214979e-02
1.213024e-02
1.212042e-02
8.671154e-01
6.519340e-01
5.000000e-01
3.957242e-01
3.231154e-01
2.710227e-01
2.323972e-01
2.028599e-01
1.796522e-01
1.609902e-01
1.456853e-01
1.329217e-01
1.221238e-01
1.128758e-01
1.048698e-01
9.787401e-02
9.171043e-02
8.624033e-02
8.135405e-02
7.696381e-02
7.299855e-02
6.940015e-02
6.612060e-02
6.311994e-02
6.036464e-02
5.782635e-02
5.548094e-02
5.330777e-02
5.128906e-02
4.940942e-02
4.765549e-02
4.601557e-02
4.447941e-02
4.303799e-02
4.168332e-02
4.040834e-02
3.920673e-02
3.807289e-02
3.700178e-02
3.598889e-02
3.503016e-02
3.412193e-02
3.326089e-02
3.244406e-02
3.166871e-02
3.093239e-02
3.023286e-02
2.956806e-02
2.893614e-02
2.833539e-02
2.776428e-02
2.722136e-02
2.670536e-02
2.621507e-02
2.574942e-02
2.530740e-02
2.488811e-02
2.449072e-02
2.411448e-02
2.375868e-02
2.342270e-02
2.310598e-02
2.280800e-02
2.252829e-02
2.226644e-02
2.202209e-02
2.179490e-02
2.158460e-02
2.139093e-02
2.121370e-02
2.105273e-02
2.090789e-02
2.077909e-02
2.066625e-02
2.056936e-02
2.048841e-02
2.042344e-02
2.037453e-02
2.034177e-02
2.032530e-02
9.076012e-01
7.398250e-01
6.042757e-01
5.000000e-01
4.207647e-01
3.601751e-01
3.131520e-01
2.760023e-01
2.461201e-01
2.216740e-01
2.013663e-01
1.842640e-01
1.696854e-01
1.571239e-01
1.461971e-01
1.366115e-01
1.281389e-01
1.205992e-01
1.138489e-01
1.077721e-01
1.022745e-01
9.727837e-02
9.271928e-02
8.854337e-02
8.470523e-02
8.116639e-02
7.789401e-02
7.485990e-02
7.203974e-02
6.941245e-02
6.695966e-02
6.466530e-02
6.251525e-02
6.049705e-02
5.859968e-02
5.681337e-02
5.512939e-02
5.353997e-02
5.203813e-02
5.061760e-02
4.927276e-02
4.799852e-02
4.679028e-02
4.564388e-02
4.455554e-02
4.352184e-02
4.253964e-02
4.160611e-02
4.071864e-02
3.987487e-02
3.907263e-02
3.830994e-02
3.758498e-02
3.689611e-02
3.624179e-02
3.562064e-02
3.503139e-02
3.447289e-02
3.394406e-02
3.344395e-02
3.297168e-02
3.252645e-02
3.210755e-02
3.171432e-02
3.134619e-02
3.100264e-02
3.068321e-02
3.038751e-02
3.011520e-02
2.986599e-02
2.963964e-02
2.943598e-02
2.925485e-02
2.909618e-02
2.895993e-02
2.884610e-02
2.875473e-02
2.868595e-02
2.863988e-02
2.861672e-02
9.292505e-01
7.944842e-01
6.768846e-01
5.792353e-01
5.000000e-01
4.361203e-01
3.844577e-01
3.423299e-01
3.076120e-01
2.786754e-01
2.542869e-01
2.335133e-01
2.156446e-01
2.001360e-01
1.865656e-01
1.746028e-01
1.639859e-01
1.545060e-01
1.459940e-01
1.383123e-01
1.313481e-01
1.250074e-01
1.192120e-01
1.138963e-01
1.090044e-01
1.044891e-01
1.003096e-01
9.643100e-02
9.282310e-02
8.945955e-02
8.631738e-02
8.337646e-02
8.061905e-02
7.802949e-02
7.559391e-02
7.329995e-02
7.113661e-02
6.909404e-02
6.716340e-02
6.533678e-02
6.360701e-02
6.196763e-02
6.041281e-02
5.893725e-02
5.753615e-02
5.620513e-02
5.494021e-02
5.373777e-02
5.259450e-02
5.150736e-02
5.047359e-02
4.949067e-02
4.855627e-02
4.766827e-02
4.682474e-02
4.602389e-02
4.526411e-02
4.454390e-02
4.386192e-02
4.321692e-02
4.260779e-02
4.203350e-02
4.149313e-02
4.098586e-02
4.051094e-02
4.006770e-02
3.965558e-02
3.927405e-02
3.892269e-02
3.860112e-02
3.830905e-02
3.804623e-02
3.781250e-02
3.760775e-02
3.743191e-02
3.728500e-02
3.716710e-02
3.707832e-02
3.701887e-02
3.698899e-02
9.426595e-01
8.309691e-01
7.289773e-01
6.398249e-01
5.638797e-01
5.000000e-01
4.464757e-01
4.015521e-01
3.636593e-01
3.314816e-01
3.039515e-01
2.802159e-01
2.595969e-01
2.415560e-01
2.256636e-01
2.115755e-01
1.990136e-01
1.877520e-01
1.776059e-01
1.684228e-01
1.600761e-01
1.524600e-01
1.454855e-01
1.390773e-01
1.331712e-01
1.277124e-01
1.226536e-01
1.179540e-01
1.135781e-01
1.094951e-01
1.056778e-01
1.021025e-01
9.874804e-02
9.559593e-02
9.262964e-02
8.983444e-02
8.719719e-02
8.470611e-02
8.235065e-02
8.012127e-02
7.800940e-02
7.600728e-02
7.410788e-02
7.230482e-02
7.059233e-02
6.896511e-02
6.741838e-02
6.594775e-02
6.454922e-02
6.321912e-02
6.195412e-02
6.075114e-02
5.960739e-02
5.852030e-02
5.748751e-02
5.650687e-02
5.557640e-02
5.469432e-02
5.385897e-02
5.306885e-02
5.232260e-02
5.161899e-02
5.095689e-02
5.033529e-02
4.975330e-02
4.921011e-02
4.870502e-02
4.823741e-02
4.780675e-02
4.741259e-02
4.705457e-02
4.673240e-02
4.644588e-02
4.619487e-02
4.597931e-02
4.579921e-02
4.565467e-02
4.554583e-02
4.547294e-02
4.543630e-02
9.518042e-01
8.568094e-01
7.676028e-01
6.868480e-01
6.155423e-01
5.535243e-01
5.000000e-01
4.539232e-01
4.142198e-01
3.798998e-01
3.501001e-01
3.240907e-01
3.012647e-01
2.811215e-01
2.632494e-01
2.473098e-01
2.330234e-01
2.201591e-01
2.085249e-01
1.979601e-01
1.883300e-01
1.795206e-01
1.714356e-01
1.639924e-01
1.571205e-01
1.507592e-01
1.448558e-01
1.393649e-01
1.342464e-01
1.294656e-01
1.249918e-01
1.207981e-01
1.168605e-01
1.131579e-01
1.096712e-01
1.063838e-01
1.032804e-01
1.003476e-01
9.757321e-02
9.494618e-02
9.245664e-02
9.009562e-02
8.785497e-02
8.572730e-02
8.370591e-02
8.178465e-02
7.995795e-02
7.822071e-02
7.656828e-02
7.499638e-02
7.350111e-02
7.207890e-02
7.072648e-02
6.944085e-02
6.821926e-02
6.705919e-02
6.595833e-02
6.491459e-02
6.392602e-02
6.299089e-02
6.210760e-02
6.127468e-02
6.049084e-02
5.975490e-02
5.906580e-02
5.842259e-02
5.782446e-02
5.727068e-02
5.676063e-02
5.629379e-02
5.586974e-02
5.548814e-02
5.514874e-02
5.485141e-02
5.459605e-02
5.438270e-02
5.421147e-02
5.408254e-02
5.399618e-02
5.395278e-02
9.584544e-01
8.759919e-01
7.971401e-01
7.239977e-01
6.576701e-01
5.984479e-01
5.460768e-01
5.000000e-01
4.595335e-01
4.239752e-01
3.926640e-01
3.650068e-01
3.404867e-01
3.186601e-01
2.991506e-01
2.816398e-01
2.658592e-01
2.515821e-01
2.386170e-01
2.268014e-01
2.159972e-01
2.060865e-01
1.969684e-01
1.885559e-01
1.807740e-01
1.735578e-01
1.668508e-01
1.606034e-01
1.547726e-01
1.493201e-01
1.442125e-01
1.394201e-01
1.349164e-01
1.306781e-01
1.266842e-01
1.229159e-01
1.193564e-01
1.159906e-01
1.128049e-01
1.097870e-01
1.069258e-01
1.042111e-01
1.016338e-01
9.918559e-02
9.685887e-02
9.464671e-02
9.254282e-02
9.054140e-02
8.863720e-02
8.682536e-02
8.510148e-02
8.346148e-02
8.190164e-02
8.041856e-02
7.900911e-02
7.767043e-02
7.639989e-02
7.519509e-02
7.405385e-02
7.297415e-02
7.195417e-02
7.099228e-02
7.008697e-02
6.923690e-02
6.844086e-02
6.769779e-02
6.700673e-02
6.636688e-02
6.577752e-02
6.523805e-02
6.474801e-02
6.430700e-02
6.391475e-02
6.357110e-02
6.327596e-02
6.302937e-02
6.283144e-02
6.268241e-02
6.258260e-02
6.253243e-02
9.635145e-01
8.907676e-01
8.203478e-01
7.538799e-01
6.923880e-01
6.363407e-01
5.857802e-01
5.404665e-01
5.000000e-01
4.639105e-01
4.317153e-01
4.029528e-01
3.772000e-01
3.540794e-01
3.332593e-01
3.144512e-01
2.974059e-01
2.819088e-01
2.677750e-01
2.548455e-01
2.429831e-01
2.320694e-01
2.220020e-01
2.126919e-01
2.040615e-01
1.960434e-01
1.885783e-01
1.816141e-01
1.751052e-01
1.690109e-01
1.632955e-01
1.579272e-01
1.528775e-01
1.481210e-01
1.436352e-01
1.393997e-01
1.353961e-01
1.316080e-01
1.280204e-01
1.246200e-01
1.213944e-01
1.183326e-01
1.154245e-01
1.126609e-01
1.100334e-01
1.075345e-01
1.051570e-01
1.028947e-01
1.007416e-01
9.869241e-02
9.674219e-02
9.488643e-02
9.312099e-02
9.144207e-02
8.984620e-02
8.833017e-02
8.689107e-02
8.552621e-02
8.423316e-02
8.300966e-02
8.185370e-02
8.076343e-02
7.973718e-02
7.877344e-02
7.787088e-02
7.702829e-02
7.624462e-02
7.551895e-02
7.485051e-02
7.423862e-02
7.368275e-02
7.318248e-02
7.273750e-02
7.234763e-02
7.201280e-02
7.173302e-02
7.150847e-02
7.133938e-02
7.122613e-02
7.116921e-02
9.674962e-01
9.024869e-01
8.390098e-01
7.783259e-01
7.213246e-01
6.685184e-01
6.201001e-01
5.760248e-01
5.360895e-01
5.000000e-01
4.674201e-01
4.380045e-01
4.114191e-01
3.873530e-01
3.655230e-01
3.456758e-01
3.275869e-01
3.110587e-01
2.959177e-01
2.820125e-01
2.692105e-01
2.573957e-01
2.464667e-01
2.363345e-01
2.269212e-01
2.181579e-01
2.099841e-01
2.023463e-01
1.951969e-01
1.884939e-01
1.821997e-01
1.762809e-01
1.707076e-01
1.654529e-01
1.604928e-01
1.558056e-01
1.513717e-01
1.471736e-01
1.431951e-01
1.394218e-01
1.358406e-01
1.324395e-01
1.292075e-01
1.261348e-01
1.232122e-01
1.204314e-01
1.177849e-01
1.152657e-01
1.128673e-01
1.105840e-01
1.084103e-01
1.063414e-01
1.043727e-01
1.025001e-01
1.007197e-01
9.902800e-02
9.742186e-02
9.589832e-02
9.445468e-02
9.308849e-02
9.179753e-02
9.057976e-02
8.943335e-02
8.835665e-02
8.734818e-02
8.640663e-02
8.553084e-02
8.471981e-02
8.397266e-02
8.328869e-02
8.266729e-02
8.210801e-02
8.161053e-02
8.117463e-02
8.080025e-02
8.048743e-02
8.023634e-02
8.004726e-02
7.992063e-02
7.985698e-02
9.707121e-01
9.120038e-01
8.543147e-01
7.986337e-01
7.457131e-01
6.960485e-01
6.498999e-01
6.073360e-01
5.682847e-01
5.325799e-01
5.000000e-01
4.702967e-01
4.432151e-01
4.185062e-01
3.959352e-01
3.752854e-01
3.563595e-01
3.389800e-01
3.229883e-01
3.082432e-01
2.946194e-01
2.820060e-01
2.703047e-01
2.594284e-01
2.492999e-01
2.398509e-01
2.310206e-01
2.227547e-01
2.150051e-01
2.077288e-01
2.008871e-01
1.944456e-01
1.883732e-01
1.826421e-01
1.772271e-01
1.721056e-01
1.672568e-01
1.626624e-01
1.583054e-01
1.541703e-01
1.502434e-01
1.465119e-01
1.429640e-01
1.395894e-01
1.363781e-01
1.333214e-01
1.304110e-01
1.276396e-01
1.250003e-01
1.224867e-01
1.200932e-01
1.178143e-01
1.156452e-01
1.135814e-01
1.116188e-01
1.097536e-01
1.079823e-01
1.063018e-01
1.047092e-01
1.032017e-01
1.017770e-01
1.004329e-01
9.916735e-02
9.797862e-02
9.686509e-02
9.582533e-02
9.485810e-02
9.396230e-02
9.313699e-02
9.238141e-02
9.169490e-02
9.107699e-02
9.052731e-02
9.004567e-02
8.963197e-02
8.928629e-02
8.900881e-02
8.879987e-02
8.865992e-02
8.858958e-02
9.733641e-01
9.198828e-01
8.670783e-01
8.157360e-01
7.664867e-01
7.197841e-01
6.759093e-01
6.349931e-01
5.970472e-01
5.619955e-01
5.297032e-01
5.000000e-01
4.726975e-01
4.476025e-01
4.245249e-01
4.032837e-01
3.837094e-01
3.656461e-01
3.489516e-01
3.334970e-01
3.191663e-01
3.058553e-01
2.934704e-01
2.819280e-01
2.711533e-01
2.610793e-01
2.516460e-01
2.427995e-01
2.344918e-01
2.266794e-01
2.193233e-01
2.123886e-01
2.058435e-01
1.996594e-01
1.938105e-01
1.882733e-01
1.830265e-01
1.780509e-01
1.733288e-01
1.688443e-01
1.645827e-01
1.605306e-01
1.566759e-01
1.530073e-01
1.495147e-01
1.461886e-01
1.430205e-01
1.400023e-01
1.371270e-01
1.343876e-01
1.317782e-01
1.292930e-01
1.269268e-01
1.246749e-01
1.225329e-01
1.204967e-01
1.185626e-01
1.167272e-01
1.149874e-01
1.133404e-01
1.117835e-01
1.103144e-01
1.089311e-01
1.076315e-01
1.064139e-01
1.052769e-01
1.042191e-01
1.032393e-01
1.023365e-01
1.015099e-01
1.007588e-01
1.000828e-01
9.948132e-02
9.895428e-02
9.850157e-02
9.812327e-02
9.781961e-02
9.759094e-02
9.743778e-02
9.736079e-02
9.755886e-01
9.265115e-01
8.778762e-01
8.303146e-01
7.843554e-01
7.404031e-01
6.987353e-01
6.595133e-01
6.227999e-01
5.885808e-01
5.567849e-01
5.273024e-01
5.000000e-01
4.747317e-01
4.513477e-01
4.297000e-01
4.096461e-01
3.910517e-01
3.737915e-01
3.577502e-01
3.428221e-01
3.289108e-01
3.159291e-01
3.037978e-01
2.924454e-01
2.818073e-01
2.718253e-01
2.624466e-01
2.536237e-01
2.453137e-01
2.374777e-01
2.300804e-01
2.230901e-01
2.164777e-01
2.102171e-01
2.042842e-01
1.986574e-01
1.933168e-01
1.882444e-01
1.834235e-01
1.788391e-01
1.744773e-01
1.703255e-01
1.663719e-01
1.626060e-01
1.590179e-01
1.555987e-01
1.523399e-01
1.492339e-01
1.462738e-01
1.434531e-01
1.407658e-01
1.382064e-01
1.357699e-01
1.334516e-01
1.312472e-01
1.291529e-01
1.271650e-01
1.252803e-01
1.234957e-01
1.218085e-01
1.202161e-01
1.187164e-01
1.173073e-01
1.159870e-01
1.147539e-01
1.136065e-01
1.125436e-01
1.115642e-01
1.106673e-01
1.098524e-01
1.091187e-01
1.084660e-01
1.078940e-01
1.074026e-01
1.069920e-01
1.066624e-01
1.064142e-01
1.062479e-01
1.061644e-01
9.774814e-01
9.321643e-01
8.871242e-01
8.428761e-01
7.998640e-01
7.584440e-01
7.188785e-01
6.813398e-01
6.459205e-01
6.126470e-01
5.814938e-01
5.523975e-01
5.252683e-01
5.000000e-01
4.764775e-01
4.545824e-01
4.341974e-01
4.152087e-01
3.975080e-01
3.809936e-01
3.655707e-01
3.511519e-01
3.376567e-01
3.250112e-01
3.131482e-01
3.020063e-01
2.915295e-01
2.816670e-01
2.723725e-01
2.636039e-01
2.553230e-01
2.474948e-01
2.400877e-01
2.330728e-01
2.264235e-01
2.201159e-01
2.141280e-01
2.084395e-01
2.030321e-01
1.978890e-01
1.929946e-01
1.883347e-01
1.838963e-01
1.796673e-01
1.756369e-01
1.717947e-01
1.681315e-01
1.646387e-01
1.613083e-01
1.581330e-01
1.551060e-01
1.522212e-01
1.494727e-01
1.468554e-01
1.443644e-01
1.419952e-01
1.397436e-01
1.376060e-01
1.355788e-01
1.336589e-01
1.318434e-01
1.301297e-01
1.285154e-01
1.269984e-01
1.255768e-01
1.242488e-01
1.230130e-01
1.218681e-01
1.208130e-01
1.198468e-01
1.189687e-01
1.181781e-01
1.174747e-01
1.168583e-01
1.163287e-01
1.158862e-01
1.155309e-01
1.152634e-01
1.150842e-01
1.149941e-01
9.791115e-01
9.370412e-01
8.951302e-01
8.538029e-01
8.134344e-01
7.743363e-01
7.367506e-01
7.008494e-01
6.667407e-01
6.344770e-01
6.040648e-01
5.754750e-01
5.486523e-01
5.235225e-01
5.000000e-01
4.779924e-01
4.574048e-01
4.381426e-01
4.201138e-01
4.032300e-01
3.874075e-01
3.725679e-01
3.586379e-01
3.455499e-01
3.332411e-01
3.216540e-01
3.107355e-01
3.004371e-01
2.907142e-01
2.815263e-01
2.728358e-01
2.646088e-01
2.568139e-01
2.494226e-01
2.424085e-01
2.357478e-01
2.294183e-01
2.233998e-01
2.176737e-01
2.122230e-01
2.070320e-01
2.020862e-01
1.973724e-01
1.928783e-01
1.885926e-01
1.845049e-01
1.806056e-01
1.768859e-01
1.733375e-01
1.699530e-01
1.667252e-01
1.636479e-01
1.607151e-01
1.579213e-01
1.552614e-01
1.527309e-01
1.503254e-01
1.480410e-01
1.458741e-01
1.438214e-01
1.418800e-01
1.400470e-01
1.383201e-01
1.366969e-01
1.351756e-01
1.337543e-01
1.324315e-01
1.312058e-01
1.300761e-01
1.290414e-01
1.281011e-01
1.272544e-01
1.265010e-01
1.258407e-01
1.252734e-01
1.247994e-01
1.244188e-01
1.241321e-01
1.239401e-01
1.238436e-01
9.805300e-01
9.412911e-01
9.021260e-01
8.633885e-01
8.253972e-01
7.884245e-01
7.526902e-01
7.183602e-01
6.855488e-01
6.543241e-01
6.247146e-01
5.967163e-01
5.703000e-01
5.454176e-01
5.220076e-01
5.000000e-01
4.793197e-01
4.598894e-01
4.416322e-01
4.244723e-01
4.083370e-01
3.931568e-01
3.788660e-01
3.654031e-01
3.527103e-01
3.407344e-01
3.294256e-01
3.187381e-01
3.086296e-01
2.990609e-01
2.899962e-01
2.814024e-01
2.732489e-01
2.655077e-01
2.581531e-01
2.511612e-01
2.445103e-01
2.381800e-01
2.321520e-01
2.264091e-01
2.209355e-01
2.157166e-01
2.107391e-01
2.059905e-01
2.014594e-01
1.971352e-01
1.930081e-01
1.890690e-01
1.853096e-01
1.817222e-01
1.782996e-01
1.750353e-01
1.719230e-01
1.689572e-01
1.661327e-01
1.634447e-01
1.608888e-01
1.584609e-01
1.561574e-01
1.539747e-01
1.519099e-01
1.499600e-01
1.481226e-01
1.463952e-01
1.447760e-01
1.432630e-01
1.418546e-01
1.405495e-01
1.393464e-01
1.382444e-01
1.372428e-01
1.363409e-01
1.355382e-01
1.348348e-01
1.342304e-01
1.337252e-01
1.333197e-01
1.330142e-01
1.328096e-01
1.327068e-01
9.817755e-01
9.450269e-01
9.082896e-01
8.718611e-01
8.360140e-01
8.009864e-01
7.669766e-01
7.341408e-01
7.025941e-01
6.724130e-01
6.436405e-01
6.162906e-01
5.903539e-01
5.658026e-01
5.425952e-01
5.206803e-01
5.000000e-01
4.804924e-01
4.620942e-01
4.447415e-01
4.283718e-01
4.129244e-01
3.983410e-01
3.845663e-01
3.715480e-01
3.592370e-01
3.475873e-01
3.365560e-01
3.261032e-01
3.161918e-01
3.067876e-01
2.978587e-01
2.893757e-01
2.813113e-01
2.736404e-01
2.663397e-01
2.593877e-01
2.527644e-01
2.464515e-01
2.404320e-01
2.346902e-01
2.292115e-01
2.239824e-01
2.189905e-01
2.142242e-01
2.096728e-01
2.053265e-01
2.011761e-01
1.972131e-01
1.934296e-01
1.898183e-01
1.863726e-01
1.830862e-01
1.799534e-01
1.769688e-01
1.741275e-01
1.714250e-01
1.688571e-01
1.664201e-01
1.641105e-01
1.619250e-01
1.598607e-01
1.579151e-01
1.560857e-01
1.543705e-01
1.527676e-01
1.512753e-01
1.498922e-01
1.486171e-01
1.474490e-01
1.463872e-01
1.454310e-01
1.445800e-01
1.438340e-01
1.431931e-01
1.426574e-01
1.422273e-01
1.419034e-01
1.416864e-01
1.415773e-01
9.828777e-01
9.483362e-01
9.137597e-01
8.794008e-01
8.454940e-01
8.122480e-01
7.798408e-01
7.484179e-01
7.180912e-01
6.889413e-01
6.610200e-01
6.343539e-01
6.089483e-01
5.847913e-01
5.618573e-01
5.401105e-01
5.195075e-01
5.000000e-01
4.815366e-01
4.640644e-01
4.475304e-01
4.318823e-01
4.170688e-01
4.030410e-01
3.897517e-01
3.771562e-01
3.652125e-01
3.538807e-01
3.431236e-01
3.329065e-01
3.231967e-01
3.139639e-01
3.051801e-01
2.968188e-01
2.888559e-01
2.812686e-01
2.740360e-01
2.671385e-01
2.605581e-01
2.542780e-01
2.482826e-01
2.425575e-01
2.370893e-01
2.318655e-01
2.268746e-01
2.221059e-01
2.175494e-01
2.131959e-01
2.090368e-01
2.050643e-01
2.012710e-01
1.976500e-01
1.941950e-01
1.909002e-01
1.877602e-01
1.847700e-01
1.819250e-01
1.792210e-01
1.766540e-01
1.742205e-01
1.719173e-01
1.697414e-01
1.676901e-01
1.657610e-01
1.639519e-01
1.622610e-01
1.606865e-01
1.592270e-01
1.578814e-01
1.566485e-01
1.555276e-01
1.545181e-01
1.536197e-01
1.528320e-01
1.521553e-01
1.515896e-01
1.511354e-01
1.507933e-01
1.505641e-01
1.504489e-01
9.838600e-01
9.512877e-01
9.186459e-01
8.861511e-01
8.540060e-01
8.223941e-01
7.914751e-01
7.613830e-01
7.322250e-01
7.040822e-01
6.770117e-01
6.510484e-01
6.262084e-01
6.024920e-01
5.798862e-01
5.583678e-01
5.379058e-01
5.184634e-01
5.000000e-01
4.824724e-01
4.658363e-01
4.500470e-01
4.350603e-01
4.208330e-01
4.073232e-01
3.944907e-01
3.822972e-01
3.707061e-01
3.596830e-01
3.491954e-01
3.392129e-01
3.297067e-01
3.206501e-01
3.120179e-01
3.037869e-01
2.959352e-01
2.884424e-01
2.812896e-01
2.744591e-01
2.679344e-01
2.617004e-01
2.557426e-01
2.500479e-01
2.446039e-01
2.393992e-01
2.344231e-01
2.296656e-01
2.251176e-01
2.207705e-01
2.166163e-01
2.126476e-01
2.088576e-01
2.052399e-01
2.017885e-01
1.984982e-01
1.953637e-01
1.923804e-01
1.895441e-01
1.868508e-01
1.842969e-01
1.818791e-01
1.795943e-01
1.774400e-01
1.754136e-01
1.735129e-01
1.717360e-01
1.700813e-01
1.685472e-01
1.671325e-01
1.658362e-01
1.646575e-01
1.635959e-01
1.626509e-01
1.618225e-01
1.611106e-01
1.605155e-01
1.600377e-01
1.596778e-01
1.594367e-01
1.593155e-01
9.847407e-01
9.539360e-01
9.230362e-01
8.922279e-01
8.616876e-01
8.315772e-01
8.020399e-01
7.731986e-01
7.451545e-01
7.179875e-01
6.917568e-01
6.665029e-01
6.422497e-01