# vtk DataFile Version 3.0
CD_1JC
ASCII
DATASET STRUCTURED_GRID
DIMENSIONS 41 41 1
POINTS 1681 double
0.000000e+00 0.000000e+00 0.0
2.500000e-02 0.000000e+00 0.0
5.000000e-02 0.000000e+00 0.0
7.500000e-02 0.000000e+00 0.0
1.000000e-01 0.000000e+00 0.0
1.250000e-01 0.000000e+00 0.0
1.500000e-01 0.000000e+00 0.0
1.750000e-01 0.000000e+00 0.0
2.000000e-01 0.000000e+00 0.0
2.250000e-01 0.000000e+00 0.0
2.500000e-01 0.000000e+00 0.0
2.750000e-01 0.000000e+00 0.0
3.000000e-01 0.000000e+00 0.0
3.250000e-01 0.000000e+00 0.0
3.500000e-01 0.000000e+00 0.0
3.750000e-01 0.000000e+00 0.0
4.000000e-01 0.000000e+00 0.0
4.250000e-01 0.000000e+00 0.0
4.500000e-01 0.000000e+00 0.0
4.750000e-01 0.000000e+00 0.0
5.000000e-01 0.000000e+00 0.0
5.250000e-01 0.000000e+00 0.0
5.500000e-01 0.000000e+00 0.0
5.750000e-01 0.000000e+00 0.0
6.000000e-01 0.000000e+00 0.0
6.250000e-01 0.000000e+00 0.0
6.500000e-01 0.000000e+00 0.0
6.750000e-01 0.000000e+00 0.0
7.000000e-01 0.000000e+00 0.0
7.250000e-01 0.000000e+00 0.0
7.500000e-01 0.000000e+00 0.0
7.750000e-01 0.000000e+00 0.0
8.000000e-01 0.000000e+00 0.0
8.250000e-01 0.000000e+00 0.0
8.500000e-01 0.000000e+00 0.0
8.750000e-01 0.000000e+00 0.0
9.000000e-01 0.000000e+00 0.0
9.250000e-01 0.000000e+00 0.0
9.500000e-01 0.000000e+00 0.0
9.750000e-01 0.000000e+00 0.0
1.000000e+00 0.000000e+00 0.0
0.000000e+00 2.500000e-02 0.0
2.500000e-02 2.500000e-02 0.0
5.000000e-02 2.500000e-02 0.0
7.500000e-02 2.500000e-02 0.0
1.000000e-01 2.500000e-02 0.0
1.250000e-01 2.500000e-02 0.0
1.500000e-01 2.500000e-02 0.0
1.750000e-01 2.500000e-02 0.0
2.000000e-01 2.500000e-02 0.0
2.250000e-01 2.500000e-02 0.0
2.500000e-01 2.500000e-02 0.0
2.750000e-01 2.500000e-02 0.0
3.000000e-01 2.500000e-02 0.0
3.250000e-01 2.500000e-02 0.0
3.500000e-01 2.500000e-02 0.0
3.750000e-01 2.500000e-02 0.0
4.000000e-01 2.500000e-02 0.0
4.250000e-01 2.500000e-02 0.0
4.500000e-01 2.500000e-02 0.0
4.750000e-01 2.500000e-02 0.0
5.000000e-01 2.500000e-02 0.0
5.250000e-01 2.500000e-02 0.0
5.500000e-01 2.500000e-02 0.0
5.750000e-01 2.500000e-02 0.0
6.000000e-01 2.500000e-02 0.0
6.250000e-01 2.500000e-02 0.0
6.500000e-01 2.500000e-02 0.0
6.750000e-01 2.500000e-02 0.0
7.000000e-01 2.500000e-02 0.0
7.250000e-01 2.500000e-02 0.0
7.500000e-01 2.500000e-02 0.0
7.750000e-01 2.500000e-02 0.0
8.000000e-01 2.500000e-02 0.0
8.250000e-01 2.500000e-02 0.0
8.500000e-01 2.500000e-02 0.0
8.750000e-01 2.500000e-02 0.0
9.000000e-01 2.500000e-02 0.0
9.250000e-01 2.500000e-02 0.0
9.500000e-01 2.500000e-02 0.0
9.750000e-01 2.500000e-02 0.0
1.000000e+00 2.500000e-02 0.0
0.000000e+00 5.000000e-02 0.0
2.500000e-02 5.000000e-02 0.0
5.000000e-02 5.000000e-02 0.0
7.500000e-02 5.000000e-02 0.0
1.000000e-01 5.000000e-02 0.0
1.250000e-01 5.000000e-02 0.0
1.500000e-01 5.000000e-02 0.0
1.750000e-01 5.000000e-02 0.0
2.000000e-01 5.000000e-02 0.0
2.250000e-01 5.000000e-02 0.0
2.500000e-01 5.000000e-02 0.0
2.750000e-01 5.000000e-02 0.0
3.000000e-01 5.000000e-02 0.0
3.250000e-01 5.000000e-02 0.0
3.500000e-01 5.000000e-02 0.0
3.750000e-01 5.000000e-02 0.0
4.000000e-01 5.000000e-02 0.0
4.250000e-01 5.000000e-02 0.0
4.500000e-01 5.000000e-02 0.0
4.750000e-01 5.000000e-02 0.0
5.000000e-01 5.000000e-02 0.0
5.250000e-01 5.000000e-02 0.0
5.500000e-01 5.000000e-02 0.0
5.750000e-01 5.000000e-02 0.0
6.000000e-01 5.000000e-02 0.0
6.250000e-01 5.000000e-02 0.0
6.500000e-01 5.000000e-02 0.0
6.750000e-01 5.000000e-02 0.0
7.000000e-01 5.000000e-02 0.0
7.250000e-01 5.000000e-02 0.0
7.500000e-01 5.000000e-02 0.0
7.750000e-01 5.000000e-02 0.0
8.000000e-01 5.000000e-02 0.0
8.250000e-01 5.000000e-02 0.0
8.500000e-01 5.000000e-02 0.0
8.750000e-01 5.000000e-02 0.0
9.000000e-01 5.000000e-02 0.0
9.250000e-01 5.000000e-02 0.0
9.500000e-01 5.000000e-02 0.0
9.750000e-01 5.000000e-02 0.0
1.000000e+00 5.000000e-02 0.0
0.000000e+00 7.500000e-02 0.0
2.500000e-02 7.500000e-02 0.0
5.000000e-02 7.500000e-02 0.0
7.500000e-02 7.500000e-02 0.0
1.000000e-01 7.500000e-02 0.0
1.250000e-01 7.500000e-02 0.0
1.500000e-01 7.500000e-02 0.0
1.750000e-01 7.500000e-02 0.0
2.000000e-01 7.500000e-02 0.0
2.250000e-01 7.500000e-02 0.0
2.500000e-01 7.500000e-02 0.0
2.750000e-01 7.500000e-02 0.0
3.000000e-01 7.500000e-02 0.0
3.250000e-01 7.500000e-02 0.0
3.500000e-01 7.500000e-02 0.0
3.750000e-01 7.500000e-02 0.0
4.000000e-01 7.500000e-02 0.0
4.250000e-01 7.500000e-02 0.0
4.500000e-01 7.500000e-02 0.0
4.750000e-01 7.500000e-02 0.0
5.000000e-01 7.500000e-02 0.0
5.250000e-01 7.500000e-02 0.0
5.500000e-01 7.500000e-02 0.0
5.750000e-01 7.500000e-02 0.0
6.000000e-01 7.500000e-02 0.0
6.250000e-01 7.500000e-02 0.0
6.500000e-01 7.500000e-02 0.0
6.750000e-01 7.500000e-02 0.0
7.000000e-01 7.500000e-02 0.0
7.250000e-01 7.500000e-02 0.0
7.500000e-01 7.500000e-02 0.0
7.750000e-01 7.500000e-02 0.0
8.000000e-01 7.500000e-02 0.0
8.250000e-01 7.500000e-02 0.0
8.500000e-01 7.500000e-02 0.0
8.750000e-01 7.500000e-02 0.0
9.000000e-01 7.500000e-02 0.0
9.250000e-01 7.500000e-02 0.0
9.500000e-01 7.500000e-02 0.0
9.750000e-01 7.500000e-02 0.0
1.000000e+00 7.500000e-02 0.0
0.000000e+00 1.000000e-01 0.0
2.500000e-02 1.000000e-01 0.0
5.000000e-02 1.000000e-01 0.0
7.500000e-02 1.000000e-01 0.0
1.000000e-01 1.000000e-01 0.0
1.250000e-01 1.000000e-01 0.0
1.500000e-01 1.000000e-01 0.0
1.750000e-01 1.000000e-01 0.0
2.000000e-01 1.000000e-01 0.0
2.250000e-01 1.000000e-01 0.0
2.500000e-01 1.000000e-01 0.0
2.750000e-01 1.000000e-01 0.0
3.000000e-01 1.000000e-01 0.0
3.250000e-01 1.000000e-01 0.0
3.500000e-01 1.000000e-01 0.0
3.750000e-01 1.000000e-01 0.0
4.000000e-01 1.000000e-01 0.0
4.250000e-01 1.000000e-01 0.0
4.500000e-01 1.000000e-01 0.0
4.750000e-01 1.000000e-01 0.0
5.000000e-01 1.000000e-01 0.0
5.250000e-01 1.000000e-01 0.0
5.500000e-01 1.000000e-01 0.0
5.750000e-01 1.000000e-01 0.0
6.000000e-01 1.000000e-01 0.0
6.250000e-01 1.000000e-01 0.0
6.500000e-01 1.000000e-01 0.0
6.750000e-01 1.000000e-01 0.0
7.000000e-01 1.000000e-01 0.0
7.250000e-01 1.000000e-01 0.0
7.500000e-01 1.000000e-01 0.0
7.750000e-01 1.000000e-01 0.0
8.000000e-01 1.000000e-01 0.0
8.250000e-01 1.000000e-01 0.0
8.500000e-01 1.000000e-01 0.0
8.750000e-01 1.000000e-01 0.0
9.000000e-01 1.000000e-01 0.0
9.250000e-01 1.000000e-01 0.0
9.500000e-01 1.000000e-01 0.0
9.750000e-01 1.000000e-01 0.0
1.000000e+00 1.000000e-01 0.0
0.000000e+00 1.250000e-01 0.0
2.500000e-02 1.250000e-01 0.0
5.000000e-02 1.250000e-01 0.0
7.500000e-02 1.250000e-01 0.0
1.000000e-01 1.250000e-01 0.0
1.250000e-01 1.250000e-01 0.0
1.500000e-01 1.250000e-01 0.0
1.750000e-01 1.250000e-01 0.0
2.000000e-01 1.250000e-01 0.0
2.250000e-01 1.250000e-01 0.0
2.500000e-01 1.250000e-01 0.0
2.750000e-01 1.250000e-01 0.0
3.000000e-01 1.250000e-01 0.0
3.250000e-01 1.250000e-01 0.0
3.500000e-01 1.250000e-01 0.0
3.750000e-01 1.250000e-01 0.0
4.000000e-01 1.250000e-01 0.0
4.250000e-01 1.250000e-01 0.0
4.500000e-01 1.250000e-01 0.0
4.750000e-01 1.250000e-01 0.0
5.000000e-01 1.250000e-01 0.0
5.250000e-01 1.250000e-01 0.0
5.500000e-01 1.250000e-01 0.0
5.750000e-01 1.250000e-01 0.0
6.000000e-01 1.250000e-01 0.0
6.250000e-01 1.250000e-01 0.0
6.500000e-01 1.250000e-01 0.0
6.750000e-01 1.250000e-01 0.0
7.000000e-01 1.250000e-01 0.0
7.250000e-01 1.250000e-01 0.0
7.500000e-01 1.250000e-01 0.0
7.750000e-01 1.250000e-01 0.0
8.000000e-01 1.250000e-01 0.0
8.250000e-01 1.250000e-01 0.0
8.500000e-01 1.250000e-01 0.0
8.750000e-01 1.250000e-01 0.0
9.000000e-01 1.250000e-01 0.0
9.250000e-01 1.250000e-01 0.0
9.500000e-01 1.250000e-01 0.0
9.750000e-01 1.250000e-01 0.0
1.000000e+00 1.250000e-01 0.0
0.000000e+00 1.500000e-01 0.0
2.500000e-02 1.500000e-01 0.0
5.000000e-02 1.500000e-01 0.0
7.500000e-02 1.500000e-01 0.0
1.000000e-01 1.500000e-01 0.0
1.250000e-01 1.500000e-01 0.0
1.500000e-01 1.500000e-01 0.0
1.750000e-01 1.500000e-01 0.0
2.000000e-01 1.500000e-01 0.0
2.250000e-01 1.500000e-01 0.0
2.500000e-01 1.500000e-01 0.0
2.750000e-01 1.500000e-01 0.0
3.000000e-01 1.500000e-01 0.0
3.250000e-01 1.500000e-01 0.0
3.500000e-01 1.500000e-01 0.0
3.750000e-01 1.500000e-01 0.0
4.000000e-01 1.500000e-01 0.0
4.250000e-01 1.500000e-01 0.0
4.500000e-01 1.500000e-01 0.0
4.750000e-01 1.500000e-01 0.0
5.000000e-01 1.500000e-01 0.0
5.250000e-01 1.500000e-01 0.0
5.500000e-01 1.500000e-01 0.0
5.750000e-01 1.500000e-01 0.0
6.000000e-01 1.500000e-01 0.0
6.250000e-01 1.500000e-01 0.0
6.500000e-01 1.500000e-01 0.0
6.750000e-01 1.500000e-01 0.0
7.000000e-01 1.500000e-01 0.0
7.250000e-01 1.500000e-01 0.0
7.500000e-01 1.500000e-01 0.0
7.750000e-01 1.500000e-01 0.0
8.000000e-01 1.500000e-01 0.0
8.250000e-01 1.500000e-01 0.0
8.500000e-01 1.500000e-01 0.0
8.750000e-01 1.500000e-01 0.0
9.000000e-01 1.500000e-01 0.0
9.250000e-01 1.500000e-01 0.0
9.500000e-01 1.500000e-01 0.0
9.750000e-01 1.500000e-01 0.0
1.000000e+00 1.500000e-01 0.0
0.000000e+00 1.750000e-01 0.0
2.500000e-02 1.750000e-01 0.0
5.000000e-02 1.750000e-01 0.0
7.500000e-02 1.750000e-01 0.0
1.000000e-01 1.750000e-01 0.0
1.250000e-01 1.750000e-01 0.0
1.500000e-01 1.750000e-01 0.0
1.750000e-01 1.750000e-01 0.0
2.000000e-01 1.750000e-01 0.0
2.250000e-01 1.750000e-01 0.0
2.500000e-01 1.750000e-01 0.0
2.750000e-01 1.750000e-01 0.0
3.000000e-01 1.750000e-01 0.0
3.250000e-01 1.750000e-01 0.0
3.500000e-01 1.750000e-01 0.0
3.750000e-01 1.750000e-01 0.0
4.000000e-01 1.750000e-01 0.0
4.250000e-01 1.750000e-01 0.0
4.500000e-01 1.750000e-01 0.0
4.750000e-01 1.750000e-01 0.0
5.000000e-01 1.750000e-01 0.0
5.250000e-01 1.750000e-01 0.0
5.500000e-01 1.750000e-01 0.0
5.750000e-01 1.750000e-01 0.0
6.000000e-01 1.750000e-01 0.0
6.250000e-01 1.750000e-01 0.0
6.500000e-01 1.750000e-01 0.0
6.750000e-01 1.750000e-01 0.0
7.000000e-01 1.750000e-01 0.0
7.250000e-01 1.750000e-01 0.0
7.500000e-01 1.750000e-01 0.0
7.750000e-01 1.750000e-01 0.0
8.000000e-01 1.750000e-01 0.0
8.250000e-01 1.750000e-01 0.0
8.500000e-01 1.750000e-01 0.0
8.750000e-01 1.750000e-01 0.0
9.000000e-01 1.750000e-01 0.0
9.250000e-01 1.750000e-01 0.0
9.500000e-01 1.750000e-01 0.0
9.750000e-01 1.750000e-01 0.0
1.000000e+00 1.750000e-01 0.0
0.000000e+00 2.000000e-01 0.0
[...]
CELL_DATA 1600
SCALARS Temperature double 1
LOOKUP_TABLE default
5.000000e-01
2.151546e-01
1.173342e-01
7.557061e-02
5.384857e-02
4.077438e-02
3.209801e-02
2.595391e-02
2.140246e-02
1.791781e-02
1.518178e-02
1.299026e-02
1.120620e-02
9.734210e-03
8.505883e-03
7.470941e-03
6.591640e-03
5.839123e-03
5.190982e-03
4.629573e-03
4.140833e-03
3.713433e-03
3.338157e-03
3.007447e-03
2.715056e-03
2.455789e-03
2.225304e-03
2.019958e-03
1.836688e-03
1.672926e-03
1.526529e-03
1.395734e-03
1.279134e-03
1.175666e-03
1.084634e-03
1.005744e-03
9.391817e-04
8.857371e-04
8.469863e-04
8.255651e-04
7.848454e-01
5.000000e-01
3.350455e-01
2.379209e-01
1.774622e-01
1.374895e-01
1.096245e-01
8.934444e-02
7.407014e-02
6.224792e-02
5.289444e-02
4.536019e-02
3.920035e-02
3.410080e-02
2.983382e-02
2.623060e-02
2.316356e-02
2.053463e-02
1.826731e-02
1.630112e-02
1.458771e-02
1.308802e-02
1.177020e-02
1.060807e-02
9.579964e-03
8.667818e-03
7.856524e-03
7.133387e-03
6.487729e-03
5.910582e-03
5.394459e-03
4.933201e-03
4.521886e-03
4.156811e-03
3.835544e-03
3.557074e-03
3.322085e-03
3.133383e-03
2.996550e-03
2.920905e-03
8.826658e-01
6.649545e-01
5.000000e-01
3.822415e-01
2.986340e-01
2.383090e-01
1.937551e-01
1.600465e-01
1.339696e-01
1.133973e-01
9.689048e-02
8.345161e-02
7.237260e-02
6.313969e-02
5.537254e-02
4.878448e-02
4.315590e-02
3.831613e-02
3.413079e-02
3.049284e-02
2.731614e-02
2.453071e-02
2.207919e-02
1.991426e-02
1.799657e-02
1.629325e-02
1.477671e-02
1.342371e-02
1.221466e-02
1.113307e-02
1.016518e-02
9.299640e-03
8.527382e-03
7.841598e-03
7.237839e-03
6.714312e-03
6.272391e-03
5.917429e-03
5.659991e-03
5.517657e-03
9.244294e-01
7.620791e-01
6.177585e-01
5.000000e-01
4.072561e-01
3.349272e-01
2.783480e-01
2.336865e-01
1.980279e-01
1.692174e-01
1.456727e-01
1.262268e-01
1.100111e-01
9.637165e-02
8.480977e-02
7.494055e-02
6.646338e-02
5.914084e-02
5.278348e-02
4.723867e-02
4.238238e-02
3.811298e-02
3.434659e-02
3.101355e-02
2.805563e-02
2.542393e-02
2.307725e-02
2.098074e-02
1.910494e-02
1.742499e-02
1.592008e-02
1.457305e-02
1.337019e-02
1.230122e-02
1.135948e-02
1.054243e-02
9.852420e-03
9.297977e-03
8.895756e-03
8.673338e-03
9.461514e-01
8.225378e-01
7.013660e-01
5.927439e-01
5.000000e-01
4.227354e-01
3.590271e-01
3.066031e-01
2.633523e-01
2.274889e-01
1.975668e-01
1.724371e-01
1.511942e-01
1.331239e-01
1.176616e-01
1.043580e-01
9.285345e-02
8.285812e-02
7.413656e-02
6.649629e-02
5.977887e-02
5.385306e-02
4.860952e-02
4.395665e-02
3.981735e-02
3.612646e-02
3.282872e-02
2.987721e-02
2.723207e-02
2.485957e-02
2.273138e-02
2.082411e-02
1.911909e-02
1.760235e-02
1.626499e-02
1.510383e-02
1.412259e-02
1.333376e-02
1.276130e-02
1.244468e-02
9.592256e-01
8.625105e-01
7.616910e-01
6.650728e-01
5.772646e-01
5.000000e-01
4.332705e-01
3.762017e-01
3.275959e-01
2.862215e-01
2.509460e-01
2.207839e-01
1.949018e-01
1.726060e-01
1.533231e-01
1.365802e-01
1.219874e-01
1.092222e-01
9.801737e-02
8.815030e-02
7.943489e-02
7.171494e-02
6.485874e-02
5.875482e-02
5.330851e-02
4.843915e-02
4.407789e-02
4.016587e-02
3.665286e-02
3.349616e-02
3.065979e-02
2.811402e-02
2.583510e-02
2.380537e-02
2.201377e-02
2.045679e-02
1.914006e-02
1.808088e-02
1.731189e-02
1.688645e-02
9.679020e-01
8.903755e-01
8.062449e-01
7.216520e-01
6.409729e-01
5.667295e-01
5.000000e-01
4.409171e-01
3.890761e-01
3.438147e-01
3.043845e-01
2.700461e-01
2.401161e-01
2.139856e-01
1.911241e-01
1.710750e-01
1.534482e-01
1.379114e-01
1.241821e-01
1.120203e-01
1.012214e-01
9.161076e-02
8.303939e-02
7.537945e-02
6.852124e-02
6.237042e-02
5.684578e-02
5.187741e-02
4.740528e-02
4.337809e-02
3.975248e-02
3.649255e-02
3.356964e-02
3.096262e-02
2.865856e-02
2.665406e-02
2.495734e-02
2.359151e-02
2.259938e-02
2.205032e-02
9.740461e-01
9.106556e-01
8.399535e-01
7.663135e-01
6.933969e-01
6.237983e-01
5.590829e-01
5.000000e-01
4.467308e-01
3.991001e-01
3.567336e-01
3.191640e-01
2.858977e-01
2.564531e-01
2.303812e-01
2.072750e-01
1.867715e-01
1.685507e-01
1.523325e-01
1.378727e-01
1.249587e-01
1.134060e-01
1.030541e-01
9.376368e-02
8.541359e-02
7.789851e-02
7.112690e-02
6.501934e-02
5.950712e-02
5.453122e-02
5.004153e-02
4.599650e-02
4.236305e-02
3.911698e-02
3.624402e-02
3.374148e-02
3.162101e-02
2.991269e-02
2.867103e-02
2.798364e-02
9.785975e-01
9.259299e-01
8.660304e-01
8.019721e-01
7.366477e-01
6.724041e-01
6.109239e-01
5.532692e-01
5.000000e-01
4.513083e-01
4.071378e-01
3.672782e-01
3.314335e-01
2.992686e-01
2.704399e-01
2.446134e-01
2.214749e-01
2.007357e-01
1.821338e-01
1.654342e-01
1.504273e-01
1.369268e-01
1.247682e-01
1.138058e-01
1.039116e-01
9.497254e-02
8.688955e-02
7.957575e-02
7.295540e-02
6.696304e-02
6.154289e-02
5.664858e-02
5.224333e-02
4.830061e-02
4.480548e-02
4.175679e-02
3.917059e-02
3.708517e-02
3.556843e-02
3.472841e-02
9.820822e-01
9.377521e-01
8.866027e-01
8.307826e-01
7.725111e-01
7.137785e-01
6.561853e-01
6.008999e-01
5.486917e-01
5.000000e-01
4.550123e-01
4.137360e-01
3.760582e-01
3.417910e-01
3.107051e-01
2.825527e-01
2.570833e-01
2.340534e-01
2.132326e-01
1.944066e-01
1.773784e-01
1.619689e-01
1.480160e-01
1.353741e-01
1.239126e-01
1.135148e-01
1.040772e-01
9.550801e-02
8.772651e-02
8.066251e-02
7.425590e-02
6.845668e-02
6.322538e-02
5.853405e-02
5.436802e-02
5.072865e-02
4.763749e-02
4.514242e-02
4.332643e-02
4.232023e-02
9.848182e-01
9.471056e-01
9.031095e-01
8.543273e-01
8.024332e-01
7.490540e-01
6.956155e-01
6.432664e-01
5.928622e-01
5.449877e-01
5.000000e-01
4.580758e-01
4.192572e-01
3.834909e-01
3.506594e-01
3.206052e-01
2.931489e-01
2.681015e-01
2.452733e-01
2.244800e-01
2.055459e-01
1.883063e-01
1.726086e-01
1.583124e-01
1.452896e-01
1.334240e-01
1.226108e-01
1.127563e-01
1.037772e-01
9.560044e-02
8.816335e-02
8.141367e-02
7.531052e-02
6.982565e-02
6.494577e-02
6.067587e-02
5.704425e-02
5.410979e-02
5.197234e-02
5.078748e-02
9.870097e-01
9.546398e-01
9.165484e-01
8.737732e-01
8.275629e-01
7.792161e-01
7.299539e-01
6.808360e-01
6.327218e-01
5.862640e-01
5.419242e-01
5.000000e-01
4.606554e-01
4.239512e-01
3.898714e-01
3.583453e-01
3.292655e-01
3.025019e-01
2.779113e-01
2.553456e-01
2.346570e-01
2.157014e-01
1.983412e-01
1.824465e-01
1.678963e-01
1.545788e-01
1.423915e-01
1.312417e-01
1.210459e-01
1.117305e-01
1.032320e-01
9.549767e-02
8.848650e-02
8.217134e-02
7.654151e-02
7.160689e-02
6.740387e-02
6.400384e-02
6.152521e-02
6.015055e-02
9.887938e-01
9.607996e-01
9.276274e-01
8.899889e-01
8.488058e-01
8.050982e-01
7.598839e-01
7.141023e-01
6.685665e-01
6.239418e-01
5.807428e-01
5.393446e-01
5.000000e-01
4.628604e-01
4.279959e-01
3.954143e-01
3.650766e-01
3.369112e-01
3.108236e-01
2.867057e-01
2.644415e-01
2.439124e-01
2.250002e-01
2.075901e-01
1.915722e-01
1.768426e-01
1.633045e-01
1.508689e-01
1.394550e-01
1.289908e-01
1.194139e-01
1.106727e-01
1.027278e-01
9.555472e-02
8.914659e-02
8.351957e-02
7.871955e-02
7.483191e-02
7.199536e-02
7.042135e-02
9.902658e-01
9.658992e-01
9.368603e-01
9.036283e-01
8.668761e-01
8.273940e-01
7.860144e-01
7.435469e-01
7.007314e-01
6.582089e-01
6.165091e-01
5.760488e-01
5.371396e-01
5.000000e-01
4.647692e-01
4.315214e-01
4.002794e-01
3.710265e-01
3.437162e-01
3.182811e-01
2.946396e-01
2.727012e-01
2.523706e-01
2.335513e-01
2.161478e-01
2.000674e-01
1.852221e-01
1.715292e-01
1.589130e-01
1.473054e-01
1.366471e-01
1.268895e-01
1.179965e-01
1.099475e-01
1.027411e-01
9.640117e-02
9.098447e-02
8.659187e-02
8.338398e-02
8.160294e-02
9.914941e-01
9.701662e-01
9.446275e-01
9.151902e-01
8.823384e-01
8.466769e-01
8.088759e-01
7.696188e-01
7.295601e-01
6.892949e-01
6.493406e-01
6.101286e-01
5.720041e-01
5.352308e-01
5.000000e-01
4.664396e-01
4.346249e-01
4.045884e-01
3.763284e-01
3.498173e-01
3.250080e-01
3.018393e-01
2.802411e-01
2.601373e-01
2.414493e-01
2.240985e-01
2.080078e-01
1.931036e-01
1.793174e-01
1.665869e-01
1.548581e-01
1.440872e-01
1.342429e-01
1.253101e-01
1.172943e-01
1.102286e-01
1.041819e-01
9.927209e-02
9.568312e-02
9.368936e-02
9.925291e-01
9.737694e-01
9.512155e-01
9.250594e-01
8.956420e-01
8.634198e-01
8.289250e-01
7.927250e-01
7.553866e-01
7.174473e-01
6.793948e-01
6.416547e-01
6.045857e-01
5.684786e-01
5.335604e-01
5.000000e-01
4.679153e-01
4.373810e-01
4.084353e-01
3.810876e-01
3.553240e-01
3.311127e-01
3.084092e-01
2.871593e-01
2.673034e-01
2.487782e-01
2.315199e-01
2.154659e-01
2.005568e-01
1.867384e-01
1.739634e-01
1.621945e-01
1.514069e-01
1.415926e-01
1.327655e-01
1.249689e-01
1.182856e-01
1.128516e-01
1.088757e-01
1.066656e-01
9.934084e-01
9.768364e-01
9.568441e-01
9.335366e-01
9.071466e-01
8.780126e-01
8.465518e-01
8.132285e-01
7.785251e-01
7.429167e-01
7.068511e-01
6.707345e-01
6.349233e-01
5.997206e-01
5.653751e-01
5.320846e-01
5.000000e-01
4.692300e-01
4.398475e-01
4.118946e-01
3.853882e-01
3.603248e-01
3.366848e-01
3.144368e-01
2.935404e-01
2.739493e-01
2.556145e-01
2.384857e-01
2.225144e-01
2.076558e-01
1.938713e-01
1.811315e-01
1.694196e-01
1.587360e-01
1.491044e-01
1.405798e-01
1.332599e-01
1.273004e-01
1.229356e-01
1.205080e-01
9.941609e-01
9.794654e-01
9.616839e-01
9.408592e-01
9.171419e-01
8.907778e-01
8.620886e-01
8.314493e-01
7.992643e-01
7.659466e-01
7.318985e-01
6.974981e-01
6.630888e-01
6.289735e-01
5.954116e-01
5.626190e-01
5.307699e-01
5.000000e-01
4.704100e-01
4.420706e-01
4.150259e-01
3.892986e-01
3.648931e-01
3.417997e-01
3.199978e-01
2.994587e-01
2.801486e-01
2.620310e-01
2.450696e-01
2.292301e-01
2.144841e-01
2.008113e-01
1.882042e-01
1.766731e-01
1.662525e-01
1.570106e-01
1.490611e-01
1.425799e-01
1.378284e-01
1.351841e-01
9.948090e-01
9.817327e-01
9.658692e-01
9.472165e-01
9.258634e-01
9.019826e-01
8.758179e-01
8.476675e-01
8.178662e-01
7.867674e-01
7.547267e-01
7.220887e-01
6.891764e-01
6.562838e-01
6.236716e-01
5.915646e-01
5.601524e-01
5.295899e-01
5.000000e-01
4.714764e-01
4.440873e-01
4.178781e-01
3.928757e-01
3.690910e-01
3.465225e-01
3.251591e-01
3.049827e-01
2.859711e-01
2.681009e-01
2.513497e-01
2.356998e-01
2.211416e-01
2.076779e-01
1.953299e-01
1.841442e-01
1.742031e-01
1.656371e-01
1.586437e-01
1.535114e-01
1.506535e-01
9.953704e-01
9.836989e-01
9.695072e-01
9.527613e-01
9.335037e-01
9.118497e-01
8.879797e-01
8.621273e-01
8.345658e-01
8.055934e-01
7.755200e-01
7.446544e-01
7.132943e-01
6.817189e-01
6.501826e-01
6.189123e-01
5.881053e-01
5.579294e-01
5.285235e-01
5.000000e-01
4.724463e-01
4.459282e-01
4.204921e-01
3.961680e-01
3.729726e-01
3.509116e-01
3.299827e-01
3.101781e-01
2.914878e-01
2.739018e-01
2.574141e-01
2.420264e-01
2.277530e-01
2.146268e-01
2.027075e-01
1.920921e-01
1.829291e-01
1.754379e-01
1.699347e-01
1.668684e-01
9.958592e-01
9.854123e-01
9.726839e-01
9.576176e-01
9.402211e-01
9.205651e-01
8.987786e-01
8.750413e-01
8.495727e-01
8.226216e-01
7.944541e-01
7.653430e-01
7.355585e-01
7.053604e-01
6.749920e-01
6.446760e-01
6.146118e-01
5.849740e-01
5.559127e-01
5.275536e-01
5.000000e-01
4.733340e-01
4.476193e-01
4.229030e-01
3.992182e-01
3.765868e-01
3.550214e-01
3.345288e-01
3.151122e-01
2.967744e-01
2.795217e-01
2.633677e-01
2.483386e-01
2.344800e-01
2.218653e-01
2.106069e-01
2.008719e-01
1.929019e-01
1.870412e-01
1.837736e-01
9.962866e-01
9.869120e-01
9.754693e-01
9.618870e-01
9.461469e-01
9.282851e-01
9.083892e-01
8.865940e-01
8.630732e-01
8.380311e-01
8.116936e-01
7.842986e-01
7.560876e-01
7.272988e-01
6.981606e-01
6.688872e-01
6.396752e-01
6.107014e-01
5.821218e-01
5.540717e-01
5.266659e-01
5.000000e-01
4.741517e-01
4.491831e-01
4.251422e-01
4.020654e-01
3.799799e-01
3.589059e-01
3.388600e-01
3.198577e-01
3.019178e-01
2.850661e-01
2.693413e-01
2.548021e-01
2.415360e-01
2.296716e-01
2.193947e-01
2.109694e-01
2.047676e-01
2.013077e-01
9.966618e-01
9.882298e-01
9.779208e-01
9.656534e-01
9.513905e-01
9.351413e-01
9.169606e-01
8.969459e-01
8.752318e-01
8.519840e-01
8.273914e-01
8.016588e-01
7.749998e-01
7.476294e-01
7.197589e-01
6.915908e-01
6.633151e-01
6.351069e-01
6.071242e-01
5.795078e-01
5.523806e-01
5.258482e-01
4.999999e-01
4.749102e-01
4.506401e-01
4.272391e-01
4.047475e-01
3.831986e-01
3.626217e-01
3.430448e-01
3.244989e-01
3.070223e-01
2.906664e-01
2.755032e-01
2.616349e-01
2.492062e-01
2.384218e-01
2.295683e-01
2.230448e-01
2.194033e-01
9.969926e-01
9.893919e-01
9.800857e-01
9.689864e-01
9.560433e-01
9.412452e-01
9.246205e-01
9.062363e-01
8.861942e-01
8.646259e-01
8.416876e-01
8.175535e-01
7.924098e-01
7.664487e-01
7.398627e-01
7.128406e-01
6.855631e-01
6.582002e-01
6.309089e-01
6.038319e-01
5.770969e-01
5.508168e-01
5.250896e-01
4.999999e-01
4.756196e-01
4.520099e-01
4.292227e-01
4.073035e-01
3.862932e-01
3.662323e-01
3.471635e-01
3.291376e-01
3.122186e-01
2.964919e-01
2.820743e-01
2.691269e-01
2.578731e-01
2.486217e-01
2.417982e-01
2.379870e-01
9.972849e-01
9.904200e-01
9.820034e-01
9.719444e-01
9.601826e-01
9.466915e-01
9.314788e-01
9.145864e-01
8.960884e-01
8.760874e-01
8.547104e-01
8.321037e-01
8.084278e-01
7.838522e-01
7.585506e-01
7.326966e-01
7.064596e-01
6.800021e-01
6.534774e-01
6.270273e-01
6.007817e-01
5.748577e-01
5.493597e-01
5.243802e-01
4.999999e-01
4.762898e-01
4.533124e-01
4.311237e-01
4.097760e-01
3.893208e-01
3.698128e-01
3.513144e-01
3.339022e-01
3.176750e-01
3.027639e-01
2.893464e-01
2.776642e-01
2.680476e-01
2.609480e-01
2.569801e-01
9.975442e-01
9.913322e-01
9.837068e-01
9.745761e-01
9.638735e-01
9.515608e-01
9.376296e-01
9.221015e-01
9.050274e-01
8.864852e-01
8.665760e-01
8.454212e-01
8.231574e-01
7.999325e-01
7.759014e-01
7.512218e-01
7.260506e-01
7.005412e-01
6.748408e-01
6.490883e-01
6.234131e-01
5.979344e-01
5.727607e-01
5.479899e-01
5.237100e-01
4.999999e-01
4.769310e-01
4.545690e-01
4.329762e-01
4.122147e-01
3.923499e-01
3.734559e-01
3.556213e-01
3.389579e-01
3.236110e-01
3.097739e-01
2.977063e-01
2.877595e-01
2.804089e-01
2.762983e-01
9.977747e-01
9.921435e-01
9.852233e-01
9.769227e-01
9.671713e-01
9.559221e-01
9.431542e-01
9.288731e-01
9.131104e-01
8.959228e-01
8.773892e-01
8.576084e-01
8.366955e-01
8.147779e-01
7.919921e-01
7.684800e-01
7.443855e-01
7.198513e-01
6.950172e-01
6.700172e-01
6.449784e-01
6.200200e-01
5.952523e-01
5.707771e-01
5.466874e-01
5.230687e-01
4.999998e-01
4.775547e-01
4.558046e-01
4.348210e-01
4.146798e-01
3.954658e-01
3.772792e-01
3.602442e-01
3.445199e-01
3.303149e-01
3.179063e-01
3.076650e-01
3.000897e-01
2.958512e-01
9.979800e-01
9.928666e-01
9.865763e-01
9.790193e-01
9.701228e-01
9.598341e-01
9.481226e-01
9.349806e-01
9.204242e-01
9.044920e-01
8.872437e-01
8.687583e-01
8.491310e-01
8.284707e-01
8.068963e-01
7.845340e-01
7.615142e-01
7.379689e-01
7.140287e-01
6.898217e-01
6.654710e-01
6.410939e-01
6.168011e-01
5.926963e-01
5.688761e-01
5.454307e-01
5.224449e-01
4.999998e-01
4.781743e-01
4.570487e-01
4.367080e-01
4.172471e-01
3.987772e-01
3.814344e-01
3.653909e-01
3.508699e-01
3.381649e-01
3.276658e-01
3.198926e-01
3.155409e-01
9.981633e-01
9.935123e-01
9.877853e-01
9.808951e-01
9.727679e-01
9.633471e-01
9.525947e-01
9.404929e-01
9.270446e-01
9.122735e-01
8.962228e-01
8.789541e-01
8.605450e-01
8.410869e-01
8.206825e-01
7.994431e-01
7.774855e-01
7.549303e-01
7.318990e-01
7.085120e-01
6.848876e-01
6.611398e-01
6.373781e-01
6.137065e-01
5.902237e-01
5.670234e-01
5.441950e-01
5.218252e-01
4.999998e-01
4.788064e-01
4.583385e-01
4.387003e-01
4.200132e-01
4.024245e-01
3.861187e-01
3.713328e-01
3.583760e-01
3.476554e-01
3.397112e-01
3.352613e-01
9.983271e-01
9.940894e-01
9.888669e-01
9.825750e-01
9.751404e-01
9.665038e-01
9.566219e-01
9.454688e-01
9.330369e-01
9.193375e-01
9.043995e-01
8.882694e-01
8.710092e-01
8.526946e-01
8.334130e-01
8.132615e-01
7.923441e-01
7.707697e-01
7.486501e-01
7.260980e-01
7.032254e-01
6.801420e-01
6.569550e-01
6.337674e-01
6.106788e-01
5.877849e-01
5.651785e-01
5.429508e-01
5.211931e-01
4.999997e-01
4.794715e-01
4.597211e-01
4.408792e-01
4.231035e-01
4.065901e-01
3.915888e-01
3.784233e-01
3.675170e-01
3.594281e-01
3.548947e-01
9.984735e-01
9.946055e-01
9.898348e-01
9.840799e-01
9.772686e-01
9.693402e-01
9.602475e-01
9.499584e-01
9.384571e-01
9.257441e-01
9.118366e-01
8.967679e-01
8.805861e-01
8.633529e-01
8.451418e-01
8.260365e-01
8.061286e-01
7.855158e-01
7.643000e-01
7.425857e-01
7.204780e-01
6.980819e-01
6.755008e-01
6.528361e-01
6.301868e-01
6.076497e-01
5.853197e-01
5.632915e-01
5.416609e-01
5.205278e-01
4.999996e-01
4.801964e-01
4.612573e-01
4.433496e-01
4.266801e-01
4.115105e-01
3.981777e-01
3.871199e-01
3.789117e-01
3.743092e-01
9.986043e-01
9.950668e-01
9.907004e-01
9.854269e-01
9.791759e-01
9.718860e-01
9.635074e-01
9.540035e-01
9.433514e-01
9.315433e-01
9.185863e-01
9.045023e-01
8.893273e-01
8.731104e-01
8.559127e-01
8.378054e-01
8.188683e-01
7.991886e-01
7.788583e-01
7.579733e-01
7.366321e-01
7.149336e-01
6.929774e-01
6.708620e-01
6.486852e-01
6.265436e-01
6.045337e-01
5.827523e-01
5.612990e-01
5.402782e-01
5.198028e-01
4.999996e-01
4.810153e-01
4.630257e-01
4.462475e-01
4.309532e-01
4.174918e-01
4.063148e-01
3.980113e-01
3.933531e-01
9.987209e-01
9.954781e-01
9.914726e-01
9.866298e-01
9.808809e-01
9.741649e-01
9.664303e-01
9.576369e-01
9.477566e-01
9.367746e-01
9.246894e-01
9.115134e-01
8.972721e-01
8.820034e-01
8.657570e-01
8.485929e-01
8.305802e-01
8.117956e-01
7.923219e-01
7.722467e-01
7.516611e-01
7.306584e-01
7.093332e-01
6.877810e-01
6.660973e-01
6.443782e-01
6.227203e-01
6.012222e-01
5.799861e-01
5.591200e-01
5.387418e-01
5.189838e-01
4.999995e-01
4.819724e-01
4.651279e-01
4.497484e-01
4.361935e-01
4.249269e-01
4.165504e-01
4.118489e-01
9.988243e-01
9.958432e-01
9.921584e-01
9.876988e-01
9.823976e-01
9.761946e-01
9.690374e-01
9.608830e-01
9.516994e-01
9.414659e-01
9.301743e-01
9.178286e-01
9.044452e-01
8.900524e-01
8.746898e-01
8.584073e-01
8.412638e-01
8.233267e-01
8.046699e-01
7.853729e-01
7.655197e-01
7.451976e-01
7.244964e-01
7.035076e-01
6.823245e-01
6.610415e-01
6.397552e-01
6.185650e-01
5.975748e-01
5.768957e-01
5.566494e-01
5.369732e-01
5.180264e-01
4.999994e-01
4.831251e-01
4.676948e-01
4.540777e-01
4.427478e-01
4.343180e-01
4.295845e-01
9.989154e-01
9.961645e-01
9.927622e-01
9.886405e-01
9.837350e-01
9.779862e-01
9.713414e-01
9.637560e-01
9.551945e-01
9.456319e-01
9.350542e-01
9.234584e-01
9.108533e-01
8.972588e-01
8.827055e-01
8.672344e-01
8.508955e-01
8.337473e-01
8.158555e-01
7.972922e-01
7.781344e-01
7.584636e-01
7.383647e-01
7.179253e-01
6.972356e-01
6.763884e-01
6.554794e-01
6.346084e-01
6.138805e-01
5.934090e-01
5.733189e-01
5.537514e-01
5.348709e-01
5.168736e-01
4.999993e-01
4.845468e-01
4.708938e-01
4.595232e-01
4.510573e-01
4.463015e-01
9.989943e-01
9.964429e-01
9.932857e-01
9.894576e-01
9.848962e-01
9.795432e-01
9.733459e-01
9.662585e-01
9.582432e-01
9.492713e-01
9.393241e-01
9.283930e-01
9.164803e-01
9.035987e-01
8.897713e-01
8.750310e-01
8.594200e-01
8.429892e-01
8.257967e-01
8.079076e-01
7.893928e-01
7.703280e-01
7.507933e-01
7.308726e-01
7.106531e-01
6.902255e-01
6.696844e-01
6.491293e-01
6.286663e-01
6.084102e-01
5.884884e-01
5.690456e-01
5.502503e-01
5.323039e-01
5.154517e-01
4.999992e-01
4.863312e-01
4.749382e-01
4.664503e-01
4.616803e-01
9.990608e-01
9.966779e-01
9.937276e-01
9.901476e-01
9.858774e-01
9.808599e-01
9.750426e-01
9.683790e-01
9.608294e-01
9.523625e-01
9.429557e-01
9.325960e-01
9.212804e-01
9.090154e-01
8.958180e-01
8.817143e-01
8.667399e-01
8.509387e-01
8.343627e-01
8.170706e-01
7.991278e-01
7.806049e-01
7.615777e-01
7.421264e-01
7.223353e-01
7.022930e-01
6.820930e-01
6.618342e-01
6.416231e-01
6.215757e-01
6.018212e-01
5.825070e-01
5.638051e-01
5.459209e-01
5.291047e-01
5.136672e-01
4.999991e-01
4.885974e-01
4.800982e-01
4.753203e-01
9.991143e-01
9.968666e-01
9.940826e-01
9.907020e-01
9.866662e-01
9.819191e-01
9.764085e-01
9.700873e-01
9.629148e-01
9.548575e-01
9.458901e-01
9.359961e-01
9.251680e-01
9.134080e-01
9.007278e-01
8.871482e-01
8.726994e-01
8.574198e-01
8.413560e-01
8.245618e-01
8.070977e-01
7.890302e-01
7.704312e-01
7.513778e-01
7.319517e-01
7.122399e-01
6.923342e-01
6.723333e-01
6.523436e-01
6.324819e-01
6.128789e-01
5.936839e-01
5.750717e-01
5.572507e-01
5.404752e-01
5.250601e-01
5.114008e-01
4.999991e-01
4.914959e-01
4.867145e-01
9.991530e-01
9.970034e-01
9.943400e-01
9.911042e-01
9.872387e-01
9.826881e-01
9.774006e-01
9.713289e-01
9.644315e-01
9.566735e-01
9.480276e-01
9.384747e-01
9.280045e-01