# vtk DataFile Version 3.0
CD_1JC
ASCII
DATASET STRUCTURED_GRID
DIMENSIONS 81 81 1
POINTS 6561 double
0.000000e+00 0.000000e+00 0.0
1.250000e-02 0.000000e+00 0.0
2.500000e-02 0.000000e+00 0.0
3.750000e-02 0.000000e+00 0.0
5.000000e-02 0.000000e+00 0.0
6.250000e-02 0.000000e+00 0.0
7.500000e-02 0.000000e+00 0.0
8.750000e-02 0.000000e+00 0.0
1.000000e-01 0.000000e+00 0.0
1.125000e-01 0.000000e+00 0.0
1.250000e-01 0.000000e+00 0.0
1.375000e-01 0.000000e+00 0.0
1.500000e-01 0.000000e+00 0.0
1.625000e-01 0.000000e+00 0.0
1.750000e-01 0.000000e+00 0.0
1.875000e-01 0.000000e+00 0.0
2.000000e-01 0.000000e+00 0.0
2.125000e-01 0.000000e+00 0.0
2.250000e-01 0.000000e+00 0.0
2.375000e-01 0.000000e+00 0.0
2.500000e-01 0.000000e+00 0.0
2.625000e-01 0.000000e+00 0.0
2.750000e-01 0.000000e+00 0.0
2.875000e-01 0.000000e+00 0.0
3.000000e-01 0.000000e+00 0.0
3.125000e-01 0.000000e+00 0.0
3.250000e-01 0.000000e+00 0.0
3.375000e-01 0.000000e+00 0.0
3.500000e-01 0.000000e+00 0.0
3.625000e-01 0.000000e+00 0.0
3.750000e-01 0.000000e+00 0.0
3.875000e-01 0.000000e+00 0.0
4.000000e-01 0.000000e+00 0.0
4.125000e-01 0.000000e+00 0.0
4.250000e-01 0.000000e+00 0.0
4.375000e-01 0.000000e+00 0.0
4.500000e-01 0.000000e+00 0.0
4.625000e-01 0.000000e+00 0.0
4.750000e-01 0.000000e+00 0.0
4.875000e-01 0.000000e+00 0.0
5.000000e-01 0.000000e+00 0.0
5.125000e-01 0.000000e+00 0.0
5.250000e-01 0.000000e+00 0.0
5.375000e-01 0.000000e+00 0.0
5.500000e-01 0.000000e+00 0.0
5.625000e-01 0.000000e+00 0.0
5.750000e-01 0.000000e+00 0.0
5.875000e-01 0.000000e+00 0.0
6.000000e-01 0.000000e+00 0.0
6.125000e-01 0.000000e+00 0.0
6.250000e-01 0.000000e+00 0.0
6.375000e-01 0.000000e+00 0.0
6.500000e-01 0.000000e+00 0.0
6.625000e-01 0.000000e+00 0.0
6.750000e-01 0.000000e+00 0.0
6.875000e-01 0.000000e+00 0.0
7.000000e-01 0.000000e+00 0.0
7.125000e-01 0.000000e+00 0.0
7.250000e-01 0.000000e+00 0.0
7.375000e-01 0.000000e+00 0.0
7.500000e-01 0.000000e+00 0.0
7.625000e-01 0.000000e+00 0.0
7.750000e-01 0.000000e+00 0.0
7.875000e-01 0.000000e+00 0.0
8.000000e-01 0.000000e+00 0.0
8.125000e-01 0.000000e+00 0.0
8.250000e-01 0.000000e+00 0.0
8.375000e-01 0.000000e+00 0.0
8.500000e-01 0.000000e+00 0.0
8.625000e-01 0.000000e+00 0.0
8.750000e-01 0.000000e+00 0.0
8.875000e-01 0.000000e+00 0.0
9.000000e-01 0.000000e+00 0.0
9.125000e-01 0.000000e+00 0.0
9.250000e-01 0.000000e+00 0.0
9.375000e-01 0.000000e+00 0.0
9.500000e-01 0.000000e+00 0.0
9.625000e-01 0.000000e+00 0.0
9.750000e-01 0.000000e+00 0.0
9.875000e-01 0.000000e+00 0.0
1.000000e+00 0.000000e+00 0.0
0.000000e+00 1.250000e-02 0.0
1.250000e-02 1.250000e-02 0.0
2.500000e-02 1.250000e-02 0.0
3.750000e-02 1.250000e-02 0.0
5.000000e-02 1.250000e-02 0.0
6.250000e-02 1.250000e-02 0.0
7.500000e-02 1.250000e-02 0.0
8.750000e-02 1.250000e-02 0.0
1.000000e-01 1.250000e-02 0.0
1.125000e-01 1.250000e-02 0.0
1.250000e-01 1.250000e-02 0.0
1.375000e-01 1.250000e-02 0.0
1.500000e-01 1.250000e-02 0.0
1.625000e-01 1.250000e-02 0.0
1.750000e-01 1.250000e-02 0.0
1.875000e-01 1.250000e-02 0.0
2.000000e-01 1.250000e-02 0.0
2.125000e-01 1.250000e-02 0.0
2.250000e-01 1.250000e-02 0.0
2.375000e-01 1.250000e-02 0.0
2.500000e-01 1.250000e-02 0.0
2.625000e-01 1.250000e-02 0.0
2.750000e-01 1.250000e-02 0.0
2.875000e-01 1.250000e-02 0.0
3.000000e-01 1.250000e-02 0.0
3.125000e-01 1.250000e-02 0.0
3.250000e-01 1.250000e-02 0.0
3.375000e-01 1.250000e-02 0.0
3.500000e-01 1.250000e-02 0.0
3.625000e-01 1.250000e-02 0.0
3.750000e-01 1.250000e-02 0.0
3.875000e-01 1.250000e-02 0.0
4.000000e-01 1.250000e-02 0.0
4.125000e-01 1.250000e-02 0.0
4.250000e-01 1.250000e-02 0.0
4.375000e-01 1.250000e-02 0.0
4.500000e-01 1.250000e-02 0.0
4.625000e-01 1.250000e-02 0.0
4.750000e-01 1.250000e-02 0.0
4.875000e-01 1.250000e-02 0.0
5.000000e-01 1.250000e-02 0.0
5.125000e-01 1.250000e-02 0.0
5.250000e-01 1.250000e-02 0.0
5.375000e-01 1.250000e-02 0.0
5.500000e-01 1.250000e-02 0.0
5.625000e-01 1.250000e-02 0.0
5.750000e-01 1.250000e-02 0.0
5.875000e-01 1.250000e-02 0.0
6.000000e-01 1.250000e-02 0.0
6.125000e-01 1.250000e-02 0.0
6.250000e-01 1.250000e-02 0.0
6.375000e-01 1.250000e-02 0.0
6.500000e-01 1.250000e-02 0.0
6.625000e-01 1.250000e-02 0.0
6.750000e-01 1.250000e-02 0.0
6.875000e-01 1.250000e-02 0.0
7.000000e-01 1.250000e-02 0.0
7.125000e-01 1.250000e-02 0.0
7.250000e-01 1.250000e-02 0.0
7.375000e-01 1.250000e-02 0.0
7.500000e-01 1.250000e-02 0.0
7.625000e-01 1.250000e-02 0.0
7.750000e-01 1.250000e-02 0.0
7.875000e-01 1.250000e-02 0.0
8.000000e-01 1.250000e-02 0.0
8.125000e-01 1.250000e-02 0.0
8.250000e-01 1.250000e-02 0.0
8.375000e-01 1.250000e-02 0.0
8.500000e-01 1.250000e-02 0.0
8.625000e-01 1.250000e-02 0.0
8.750000e-01 1.250000e-02 0.0
8.875000e-01 1.250000e-02 0.0
9.000000e-01 1.250000e-02 0.0
9.125000e-01 1.250000e-02 0.0
9.250000e-01 1.250000e-02 0.0
9.375000e-01 1.250000e-02 0.0
9.500000e-01 1.250000e-02 0.0
9.625000e-01 1.250000e-02 0.0
9.750000e-01 1.250000e-02 0.0
9.875000e-01 1.250000e-02 0.0
1.000000e+00 1.250000e-02 0.0
0.000000e+00 2.500000e-02 0.0
1.250000e-02 2.500000e-02 0.0
2.500000e-02 2.500000e-02 0.0
3.750000e-02 2.500000e-02 0.0
5.000000e-02 2.500000e-02 0.0
6.250000e-02 2.500000e-02 0.0
7.500000e-02 2.500000e-02 0.0
8.750000e-02 2.500000e-02 0.0
1.000000e-01 2.500000e-02 0.0
1.125000e-01 2.500000e-02 0.0
1.250000e-01 2.500000e-02 0.0
1.375000e-01 2.500000e-02 0.0
1.500000e-01 2.500000e-02 0.0
1.625000e-01 2.500000e-02 0.0
1.750000e-01 2.500000e-02 0.0
1.875000e-01 2.500000e-02 0.0
2.000000e-01 2.500000e-02 0.0
2.125000e-01 2.500000e-02 0.0
2.250000e-01 2.500000e-02 0.0
2.375000e-01 2.500000e-02 0.0
2.500000e-01 2.500000e-02 0.0
2.625000e-01 2.500000e-02 0.0
2.750000e-01 2.500000e-02 0.0
2.875000e-01 2.500000e-02 0.0
3.000000e-01 2.500000e-02 0.0
3.125000e-01 2.500000e-02 0.0
3.250000e-01 2.500000e-02 0.0
3.375000e-01 2.500000e-02 0.0
3.500000e-01 2.500000e-02 0.0
3.625000e-01 2.500000e-02 0.0
3.750000e-01 2.500000e-02 0.0
3.875000e-01 2.500000e-02 0.0
4.000000e-01 2.500000e-02 0.0
4.125000e-01 2.500000e-02 0.0
4.250000e-01 2.500000e-02 0.0
4.375000e-01 2.500000e-02 0.0
4.500000e-01 2.500000e-02 0.0
4.625000e-01 2.500000e-02 0.0
4.750000e-01 2.500000e-02 0.0
4.875000e-01 2.500000e-02 0.0
5.000000e-01 2.500000e-02 0.0
5.125000e-01 2.500000e-02 0.0
5.250000e-01 2.500000e-02 0.0
5.375000e-01 2.500000e-02 0.0
5.500000e-01 2.500000e-02 0.0
5.625000e-01 2.500000e-02 0.0
5.750000e-01 2.500000e-02 0.0
5.875000e-01 2.500000e-02 0.0
6.000000e-01 2.500000e-02 0.0
6.125000e-01 2.500000e-02 0.0
6.250000e-01 2.500000e-02 0.0
6.375000e-01 2.500000e-02 0.0
6.500000e-01 2.500000e-02 0.0
6.625000e-01 2.500000e-02 0.0
6.750000e-01 2.500000e-02 0.0
6.875000e-01 2.500000e-02 0.0
7.000000e-01 2.500000e-02 0.0
7.125000e-01 2.500000e-02 0.0
7.250000e-01 2.500000e-02 0.0
7.375000e-01 2.500000e-02 0.0
7.500000e-01 2.500000e-02 0.0
7.625000e-01 2.500000e-02 0.0
7.750000e-01 2.500000e-02 0.0
7.875000e-01 2.500000e-02 0.0
8.000000e-01 2.500000e-02 0.0
8.125000e-01 2.500000e-02 0.0
8.250000e-01 2.500000e-02 0.0
8.375000e-01 2.500000e-02 0.0
8.500000e-01 2.500000e-02 0.0
8.625000e-01 2.500000e-02 0.0
8.750000e-01 2.500000e-02 0.0
8.875000e-01 2.500000e-02 0.0
9.000000e-01 2.500000e-02 0.0
9.125000e-01 2.500000e-02 0.0
9.250000e-01 2.500000e-02 0.0
9.375000e-01 2.500000e-02 0.0
9.500000e-01 2.500000e-02 0.0
9.625000e-01 2.500000e-02 0.0
9.750000e-01 2.500000e-02 0.0
9.875000e-01 2.500000e-02 0.0
1.000000e+00 2.500000e-02 0.0
0.000000e+00 3.750000e-02 0.0
1.250000e-02 3.750000e-02 0.0
2.500000e-02 3.750000e-02 0.0
3.750000e-02 3.750000e-02 0.0
5.000000e-02 3.750000e-02 0.0
6.250000e-02 3.750000e-02 0.0
7.500000e-02 3.750000e-02 0.0
8.750000e-02 3.750000e-02 0.0
1.000000e-01 3.750000e-02 0.0
1.125000e-01 3.750000e-02 0.0
1.250000e-01 3.750000e-02 0.0
1.375000e-01 3.750000e-02 0.0
1.500000e-01 3.750000e-02 0.0
1.625000e-01 3.750000e-02 0.0
1.750000e-01 3.750000e-02 0.0
1.875000e-01 3.750000e-02 0.0
2.000000e-01 3.750000e-02 0.0
2.125000e-01 3.750000e-02 0.0
2.250000e-01 3.750000e-02 0.0
2.375000e-01 3.750000e-02 0.0
2.500000e-01 3.750000e-02 0.0
2.625000e-01 3.750000e-02 0.0
2.750000e-01 3.750000e-02 0.0
2.875000e-01 3.750000e-02 0.0
3.000000e-01 3.750000e-02 0.0
3.125000e-01 3.750000e-02 0.0
3.250000e-01 3.750000e-02 0.0
3.375000e-01 3.750000e-02 0.0
3.500000e-01 3.750000e-02 0.0
3.625000e-01 3.750000e-02 0.0
3.750000e-01 3.750000e-02 0.0
3.875000e-01 3.750000e-02 0.0
4.000000e-01 3.750000e-02 0.0
4.125000e-01 3.750000e-02 0.0
4.250000e-01 3.750000e-02 0.0
4.375000e-01 3.750000e-02 0.0
4.500000e-01 3.750000e-02 0.0
4.625000e-01 3.750000e-02 0.0
4.750000e-01 3.750000e-02 0.0
4.875000e-01 3.750000e-02 0.0
5.000000e-01 3.750000e-02 0.0
5.125000e-01 3.750000e-02 0.0
5.250000e-01 3.750000e-02 0.0
5.375000e-01 3.750000e-02 0.0
5.500000e-01 3.750000e-02 0.0
5.625000e-01 3.750000e-02 0.0
5.750000e-01 3.750000e-02 0.0
5.875000e-01 3.750000e-02 0.0
6.000000e-01 3.750000e-02 0.0
6.125000e-01 3.750000e-02 0.0
6.250000e-01 3.750000e-02 0.0
6.375000e-01 3.750000e-02 0.0
6.500000e-01 3.750000e-02 0.0
6.625000e-01 3.750000e-02 0.0
6.750000e-01 3.750000e-02 0.0
6.875000e-01 3.750000e-02 0.0
7.000000e-01 3.750000e-02 0.0
7.125000e-01 3.750000e-02 0.0
7.250000e-01 3.750000e-02 0.0
7.375000e-01 3.750000e-02 0.0
7.500000e-01 3.750000e-02 0.0
7.625000e-01 3.750000e-02 0.0
7.750000e-01 3.750000e-02 0.0
7.875000e-01 3.750000e-02 0.0
8.000000e-01 3.750000e-02 0.0
8.125000e-01 3.750000e-02 0.0
8.250000e-01 3.750000e-02 0.0
8.375000e-01 3.750000e-02 0.0
8.500000e-01 3.750000e-02 0.0
8.625000e-01 3.750000e-02 0.0
8.750000e-01 3.750000e-02 0.0
8.875000e-01 3.750000e-02 0.0
9.000000e-01 3.750000e-02 0.0
9.125000e-01 3.750000e-02 0.0
9.250000e-01 3.750000e-02 0.0
9.375000e-01 3.750000e-02 0.0
9.500000e-01 3.750000e-02 0.0
9.625000e-01 3.750000e-02 0.0
9.750000e-01 3.750000e-02 0.0
9.875000e-01 3.750000e-02 0.0
1.000000e+00 3.750000e-02 0.0
0.000000e+00 5.000000e-02 0.0
1.250000e-02 5.000000e-02 0.0
2.500000e-02 5.000000e-02 0.0
3.750000e-02 5.000000e-02 0.0
5.000000e-02 5.000000e-02 0.0
[...]
CELL_DATA 6400
SCALARS Temperature double 1
LOOKUP_TABLE default
5.000000e-01
2.206985e-01
1.251055e-01
8.385394e-02
6.202516e-02
4.864504e-02
3.960687e-02
3.309383e-02
2.818330e-02
2.435542e-02
2.129385e-02
1.879464e-02
1.672021e-02
1.497434e-02
1.348768e-02
1.220901e-02
1.109965e-02
1.012987e-02
9.276427e-03
8.520908e-03
7.848529e-03
7.247288e-03
6.707348e-03
6.220564e-03
5.780141e-03
5.380368e-03
5.016408e-03
4.684139e-03
4.380031e-03
4.101039e-03
3.844529e-03
3.608207e-03
3.390069e-03
3.188356e-03
3.001520e-03
2.828192e-03
2.667156e-03
2.517334e-03
2.377760e-03
2.247573e-03
2.125997e-03
2.012338e-03
1.905967e-03
1.806318e-03
1.712877e-03
1.625178e-03
1.542798e-03
1.465353e-03
1.392491e-03
1.323890e-03
1.259259e-03
1.198329e-03
1.140854e-03
1.086608e-03
1.035386e-03
9.869983e-04
9.412704e-04
8.980439e-04
8.571733e-04
8.185258e-04
7.819808e-04
7.474292e-04
7.147728e-04
6.839244e-04
6.548076e-04
6.273565e-04
6.015164e-04
5.772440e-04
5.545082e-04
5.332906e-04
5.135872e-04
4.954095e-04
4.787864e-04
4.637666e-04
4.504215e-04
4.388483e-04
4.291746e-04
4.215629e-04
4.162172e-04
4.133896e-04
7.793015e-01
5.000000e-01
3.415905e-01
2.489999e-01
1.912564e-01
1.527811e-01
1.256522e-01
1.056356e-01
9.032805e-02
7.828433e-02
6.858936e-02
6.063783e-02
5.401422e-02
4.842416e-02
4.365354e-02
3.954295e-02
3.597136e-02
3.284526e-02
3.009128e-02
2.765109e-02
2.547774e-02
2.353301e-02
2.178552e-02
2.020924e-02
1.878242e-02
1.748675e-02
1.630671e-02
1.522906e-02
1.424243e-02
1.333705e-02
1.250440e-02
1.173712e-02
1.102871e-02
1.037352e-02
9.766547e-03
9.203356e-03
8.680027e-03
8.193066e-03
7.739355e-03
7.316101e-03
6.920799e-03
6.551195e-03
6.205255e-03
5.881143e-03
5.577195e-03
5.291902e-03
5.023890e-03
4.771911e-03
4.534826e-03
4.311593e-03
4.101262e-03
3.902962e-03
3.715896e-03
3.539332e-03
3.372599e-03
3.215082e-03
3.066218e-03
2.925491e-03
2.792427e-03
2.666595e-03
2.547605e-03
2.435100e-03
2.328762e-03
2.228309e-03
2.133490e-03
2.044093e-03
1.959940e-03
1.880891e-03
1.806844e-03
1.737739e-03
1.673565e-03
1.614359e-03
1.560216e-03
1.511294e-03
1.467825e-03
1.430129e-03
1.398618e-03
1.373825e-03
1.356412e-03
1.347201e-03
8.748945e-01
6.584095e-01
5.000000e-01
3.889729e-01
3.107510e-01
2.543256e-01
2.124409e-01
1.804716e-01
1.554540e-01
1.354492e-01
1.191548e-01
1.056720e-01
9.436404e-02
8.476920e-02
7.654541e-02
6.943435e-02
6.323760e-02
5.780042e-02
5.300046e-02
4.873977e-02
4.493910e-02
4.153363e-02
3.846991e-02
3.570344e-02
3.319695e-02
3.091894e-02
2.884266e-02
2.694525e-02
2.520704e-02
2.361106e-02
2.214256e-02
2.078868e-02
1.953818e-02
1.838115e-02
1.730886e-02
1.631359e-02
1.538847e-02
1.452738e-02
1.372488e-02
1.297605e-02
1.227650e-02
1.162229e-02
1.100983e-02
1.043590e-02
9.897576e-03
9.392201e-03
8.917360e-03
8.470853e-03
8.050674e-03
7.654990e-03
7.282124e-03
6.930540e-03
6.598833e-03
6.285711e-03
5.989992e-03
5.710589e-03
5.446508e-03
5.196836e-03
4.960740e-03
4.737456e-03
4.526293e-03
4.326625e-03
4.137888e-03
3.959582e-03
3.791266e-03
3.632565e-03
3.483164e-03
3.342815e-03
3.211341e-03
3.088638e-03
2.974683e-03
2.869546e-03
2.773395e-03
2.686514e-03
2.609316e-03
2.542367e-03
2.486403e-03
2.442368e-03
2.411442e-03
2.395083e-03
9.161461e-01
7.510001e-01
6.110271e-01
5.000000e-01
4.139523e-01
3.473454e-01
2.953014e-01
2.540714e-01
2.209148e-01
1.938583e-01
1.714783e-01
1.527382e-01
1.368730e-01
1.233099e-01
1.116136e-01
1.014488e-01
9.255354e-02
8.472078e-02
7.778492e-02
7.161217e-02
6.609334e-02
6.113853e-02
5.667312e-02
5.263471e-02
4.897073e-02
4.563662e-02
4.259437e-02
3.981140e-02
3.725961e-02
3.491466e-02
3.275537e-02
3.076324e-02
2.892203e-02
2.721744e-02
2.563683e-02
2.416900e-02
2.280398e-02
2.153289e-02
2.034778e-02
1.924152e-02
1.820770e-02
1.724054e-02
1.633482e-02
1.548583e-02
1.468928e-02
1.394129e-02
1.323831e-02
1.257713e-02
1.195478e-02
1.136860e-02
1.081610e-02
1.029504e-02
9.803347e-03
9.339122e-03
8.900624e-03
8.486256e-03
8.094550e-03
7.724164e-03
7.373868e-03
7.042539e-03
6.729158e-03
6.432800e-03
6.152635e-03
5.887925e-03
5.638023e-03
5.402372e-03
5.180511e-03
4.972076e-03
4.776804e-03
4.594546e-03
4.425272e-03
4.269086e-03
4.126241e-03
3.997162e-03
3.882465e-03
3.782990e-03
3.699836e-03
3.634405e-03
3.588450e-03
3.564142e-03
9.379748e-01
8.087436e-01
6.892490e-01
5.860477e-01
5.000000e-01
4.293238e-01
3.714568e-01
3.239137e-01
2.845829e-01
2.517711e-01
2.241542e-01
2.007062e-01
1.806324e-01
1.633141e-01
1.482666e-01
1.351070e-01
1.235298e-01
1.132892e-01
1.041861e-01
9.605728e-02
8.876828e-02
8.220737e-02
7.628105e-02
7.091059e-02
6.602928e-02
6.158024e-02
5.751474e-02
5.379080e-02
5.037211e-02
4.722709e-02
4.432817e-02
4.165121e-02
3.917495e-02
3.688064e-02
3.475166e-02
3.277327e-02
3.093230e-02
2.921702e-02
2.761689e-02
2.612246e-02
2.472522e-02
2.341749e-02
2.219233e-02
2.104344e-02
1.996512e-02
1.895217e-02
1.799987e-02
1.710390e-02
1.626031e-02
1.546550e-02
1.471618e-02
1.400930e-02
1.334210e-02
1.271203e-02
1.211675e-02
1.155410e-02
1.102212e-02
1.051899e-02
1.004307e-02
9.592843e-03
9.166931e-03
8.764091e-03
8.383206e-03
8.023280e-03
7.683442e-03
7.362944e-03
7.061165e-03
6.777615e-03
6.511946e-03
6.263957e-03
6.033615e-03
5.821064e-03
5.626657e-03
5.450971e-03
5.294852e-03
5.159446e-03
5.046251e-03
4.957179e-03
4.894619e-03
4.861527e-03
9.513550e-01
8.472189e-01
7.456744e-01
6.526546e-01
5.706762e-01
5.000000e-01
4.397269e-01
3.885168e-01
3.449770e-01
3.078359e-01
2.760025e-01
2.485696e-01
2.247942e-01
2.040722e-01
1.859126e-01
1.699159e-01
1.557558e-01
1.431640e-01
1.319194e-01
1.218381e-01
1.127666e-01
1.045760e-01
9.715733e-02
9.041806e-02
8.427919e-02
7.867293e-02
7.354085e-02
6.883235e-02
6.450345e-02
6.051573e-02
5.683554e-02
5.343327e-02
5.028281e-02
4.736102e-02
4.464737e-02
4.212356e-02
3.977325e-02
3.758183e-02
3.553615e-02
3.362440e-02
3.183593e-02
3.016110e-02
2.859120e-02
2.711832e-02
2.573526e-02
2.443547e-02
2.321300e-02
2.206239e-02
2.097864e-02
1.995721e-02
1.899390e-02
1.808487e-02
1.722661e-02
1.641587e-02
1.564967e-02
1.492530e-02
1.424024e-02
1.359218e-02
1.297902e-02
1.239884e-02
1.184988e-02
1.133055e-02
1.083944e-02
1.037527e-02
9.936932e-03
9.523473e-03
9.134105e-03
8.768206e-03
8.425336e-03
8.105245e-03
7.807898e-03
7.533491e-03
7.282484e-03
7.055631e-03
6.854028e-03
6.679162e-03
6.532974e-03
6.417934e-03
6.337134e-03
6.294393e-03
9.603931e-01
8.743478e-01
7.875591e-01
7.046986e-01
6.285432e-01
5.602731e-01
5.000000e-01
4.472356e-01
4.012195e-01
3.611160e-01
3.261190e-01
2.954994e-01
2.686209e-01
2.449393e-01
2.239938e-01
2.053967e-01
1.888221e-01
1.739961e-01
1.606878e-01
1.487023e-01
1.378743e-01
1.280631e-01
1.191486e-01
1.110276e-01
1.036113e-01
9.682296e-02
9.059591e-02
8.487205e-02
7.960059e-02
7.473696e-02
7.024193e-02
6.608083e-02
6.222297e-02
5.864107e-02
5.531083e-02
5.221054e-02
4.932075e-02
4.662401e-02
4.410463e-02
4.174843e-02
3.954263e-02
3.747563e-02
3.553692e-02
3.371696e-02
3.200706e-02
3.039927e-02
2.888636e-02
2.746172e-02
2.611928e-02
2.485349e-02
2.365925e-02
2.253188e-02
2.146708e-02
2.046089e-02
1.950968e-02
1.861011e-02
1.775909e-02
1.695382e-02
1.619171e-02
1.547039e-02
1.478772e-02
1.414176e-02
1.353075e-02
1.295314e-02
1.240756e-02
1.189286e-02
1.140805e-02
1.095240e-02
1.052535e-02
1.012662e-02
9.756167e-03
9.414255e-03
9.101465e-03
8.818747e-03
8.567476e-03
8.349514e-03
8.167286e-03
8.023879e-03
7.923151e-03
7.869868e-03
9.669062e-01
8.943644e-01
8.195284e-01
7.459286e-01
6.760863e-01
6.114832e-01
5.527644e-01
5.000000e-01
4.529130e-01
4.110467e-01
3.738740e-01
3.408627e-01
3.115106e-01
2.853616e-01
2.620114e-01
2.411062e-01
2.223389e-01
2.054445e-01
1.901948e-01
1.763928e-01
1.638691e-01
1.524770e-01
1.420898e-01
1.325975e-01
1.239042e-01
1.159266e-01
1.085915e-01
1.018348e-01
9.559999e-02
8.983728e-02
8.450257e-02
7.955669e-02
7.496483e-02
7.069590e-02
6.672211e-02
6.301857e-02
5.956288e-02
5.633491e-02
5.331646e-02
5.049111e-02
4.784397e-02
4.536153e-02
4.303150e-02
4.084272e-02
3.878499e-02
3.684898e-02
3.502619e-02
3.330881e-02
3.168970e-02
3.016229e-02
2.872056e-02
2.735895e-02
2.607237e-02
2.485613e-02
2.370590e-02
2.261771e-02
2.158792e-02
2.061315e-02
1.969033e-02
1.881666e-02
1.798955e-02
1.720671e-02
1.646603e-02
1.576567e-02
1.510400e-02
1.447963e-02
1.389141e-02
1.333844e-02
1.282011e-02
1.233606e-02
1.188627e-02
1.147108e-02
1.109120e-02
1.074780e-02
1.044257e-02
1.017778e-02
9.956389e-03
9.782150e-03
9.659761e-03
9.595018e-03
9.718167e-01
9.096719e-01
8.445460e-01
7.790852e-01
7.154171e-01
6.550230e-01
5.987805e-01
5.470870e-01
5.000000e-01
4.573589e-01
4.188785e-01
3.842137e-01
3.530020e-01
3.248884e-01
2.995398e-01
2.766515e-01
2.559492e-01
2.371889e-01
2.201549e-01
2.046570e-01
1.905284e-01
1.776223e-01
1.658101e-01
1.549786e-01
1.450282e-01
1.358712e-01
1.274301e-01
1.196364e-01
1.124292e-01
1.057546e-01
9.956448e-02
9.381587e-02
8.847041e-02
8.349369e-02
7.885483e-02
7.452601e-02
7.048217e-02
6.670066e-02
6.316099e-02
5.984456e-02
5.673450e-02
5.381546e-02
5.107345e-02
4.849570e-02
4.607054e-02
4.378730e-02
4.163620e-02
3.960827e-02
3.769526e-02
3.588961e-02
3.418434e-02
3.257304e-02
3.104981e-02
2.960921e-02
2.824620e-02
2.695619e-02
2.573491e-02
2.457847e-02
2.348326e-02
2.244602e-02
2.146376e-02
2.053377e-02
1.965361e-02
1.882113e-02
1.803443e-02
1.729190e-02
1.659219e-02
1.593428e-02
1.531744e-02
1.474129e-02
1.420583e-02
1.371147e-02
1.325910e-02
1.285012e-02
1.248655e-02
1.217112e-02
1.190737e-02
1.169978e-02
1.155395e-02
1.147681e-02
9.756446e-01
9.217157e-01
8.645508e-01
8.061417e-01
7.482289e-01
6.921641e-01
6.388840e-01
5.889533e-01
5.426411e-01
5.000000e-01
4.609372e-01
4.252699e-01
3.927660e-01
3.631720e-01
3.362319e-01
3.116983e-01
2.893386e-01
2.689384e-01
2.503023e-01
2.332542e-01
2.176358e-01
2.033057e-01
1.901374e-01
1.780185e-01
1.668486e-01
1.565383e-01
1.470078e-01
1.381858e-01
1.300089e-01
1.224199e-01
1.153678e-01
1.088066e-01
1.026953e-01
9.699644e-02
9.167667e-02
8.670562e-02
8.205585e-02
7.770248e-02
7.362291e-02
6.979657e-02
6.620475e-02
6.283036e-02
5.965780e-02
5.667278e-02
5.386223e-02
5.121417e-02
4.871757e-02
4.636233e-02
4.413914e-02
4.203942e-02
4.005529e-02
3.817945e-02
3.640520e-02
3.472634e-02
3.313716e-02
3.163239e-02
3.020718e-02
2.885705e-02
2.757792e-02
2.636603e-02
2.521796e-02
2.413060e-02
2.310118e-02
2.212721e-02
2.120653e-02
2.033730e-02
1.951799e-02
1.874743e-02
1.802480e-02
1.734971e-02
1.672216e-02
1.614269e-02
1.561234e-02
1.513279e-02
1.470644e-02
1.433650e-02
1.402714e-02
1.378364e-02
1.361258e-02
1.352209e-02
9.787061e-01
9.314106e-01
8.808452e-01
8.285217e-01
7.758458e-01
7.239975e-01
6.738810e-01
6.261260e-01
5.811215e-01
5.390628e-01
5.000000e-01
4.638814e-01
4.305879e-01
3.999602e-01
3.718179e-01
3.459731e-01
3.222392e-01
3.004368e-01
2.803966e-01
2.619615e-01
2.449869e-01
2.293408e-01
2.149033e-01
2.015655e-01
1.892295e-01
1.778064e-01
1.672164e-01
1.573873e-01
1.482543e-01
1.397584e-01
1.318469e-01
1.244716e-01
1.175893e-01
1.111607e-01
1.051501e-01
9.952509e-02
9.425633e-02
8.931696e-02
8.468257e-02
8.033083e-02
7.624137e-02
7.239551e-02
6.877617e-02
6.536766e-02
6.215560e-02
5.912673e-02
5.626889e-02
5.357086e-02
5.102230e-02
4.861367e-02
4.633617e-02
4.418168e-02
4.214268e-02
4.021224e-02
3.838395e-02
3.665189e-02
3.501062e-02
3.345511e-02
3.198075e-02
3.058330e-02
2.925892e-02
2.800410e-02
2.681571e-02
2.569095e-02
2.462738e-02
2.362294e-02
2.267591e-02
2.178499e-02
2.094928e-02
2.016835e-02
1.944227e-02
1.877168e-02
1.815782e-02
1.760268e-02
1.710906e-02
1.668070e-02
1.632244e-02
1.604044e-02
1.584232e-02
1.573751e-02
9.812054e-01
9.393622e-01
8.943280e-01
8.472618e-01
7.992938e-01
7.514304e-01
7.045006e-01
6.591373e-01
6.157863e-01
5.747301e-01
5.361186e-01
5.000000e-01
4.663478e-01
4.350844e-01
4.060988e-01
3.792609e-01
3.544306e-01
3.314657e-01
3.102264e-01
2.905779e-01
2.723931e-01
2.555527e-01
2.399464e-01
2.254722e-01
2.120366e-01
1.995541e-01
1.879465e-01
1.771426e-01
1.670774e-01
1.576918e-01
1.489320e-01
1.407489e-01
1.330980e-01
1.259383e-01
1.192328e-01
1.129476e-01
1.070516e-01
1.015165e-01
9.631628e-02
9.142716e-02
8.682732e-02
8.249671e-02
7.841690e-02
7.457096e-02
7.094326e-02
6.751943e-02
6.428620e-02
6.123132e-02
5.834347e-02
5.561220e-02
5.302784e-02
5.058144e-02
4.826473e-02
4.607004e-02
4.399029e-02
4.201894e-02
4.014993e-02
3.837770e-02
3.669712e-02
3.510349e-02
3.359252e-02
3.216033e-02
3.080342e-02
2.951868e-02
2.830342e-02
2.715532e-02
2.607251e-02
2.505355e-02
2.409747e-02
2.320383e-02
2.237277e-02
2.160505e-02
2.090214e-02
2.026636e-02
1.970095e-02
1.921023e-02
1.879978e-02
1.847665e-02
1.824964e-02
1.812954e-02
9.832798e-01
9.459858e-01
9.056360e-01
8.631270e-01
8.193676e-01
7.752058e-01
7.313791e-01
6.884894e-01
6.469980e-01
6.072340e-01
5.694121e-01
5.336522e-01
5.000000e-01
4.684455e-01
4.389383e-01
4.114009e-01
3.857380e-01
3.618444e-01
3.396106e-01
3.189265e-01
2.996843e-01
2.817802e-01
2.651156e-01
2.495979e-01
2.351403e-01
2.216623e-01
2.090893e-01
1.973525e-01
1.863886e-01
1.761390e-01
1.665504e-01
1.575734e-01
1.491630e-01
1.412775e-01
1.338790e-01
1.269326e-01
1.204060e-01
1.142697e-01
1.084967e-01
1.030618e-01
9.794219e-02
9.311651e-02
8.856524e-02
8.427032e-02
8.021506e-02
7.638405e-02
7.276304e-02
6.933882e-02
6.609918e-02
6.303280e-02
6.012919e-02
5.737864e-02
5.477213e-02
5.230132e-02
4.995846e-02
4.773639e-02
4.562851e-02
4.362869e-02
4.173132e-02
3.993122e-02
3.822370e-02
3.660449e-02
3.506973e-02
3.361602e-02
3.224039e-02
3.094033e-02
2.971377e-02
2.855917e-02
2.747550e-02
2.646233e-02
2.551986e-02
2.464901e-02
2.385153e-02
2.313007e-02
2.248835e-02
2.193132e-02
2.146536e-02
2.109851e-02
2.084075e-02
2.070438e-02
9.850257e-01
9.515758e-01
9.152308e-01
8.766901e-01
8.366859e-01
7.959278e-01
7.550607e-01
7.146384e-01
6.751116e-01
6.368280e-01
6.000398e-01
5.649156e-01
5.315545e-01
5.000000e-01
4.702524e-01
4.422801e-01
4.160287e-01
3.914281e-01
3.683986e-01
3.468552e-01
3.267105e-01
3.078778e-01
2.902719e-01
2.738111e-01
2.584171e-01
2.440161e-01
2.305386e-01
2.179195e-01
2.060983e-01
1.950185e-01
1.846278e-01
1.748778e-01
1.657235e-01
1.571236e-01
1.490396e-01
1.414361e-01
1.342803e-01
1.275420e-01
1.211932e-01
1.152080e-01
1.095624e-01
1.042345e-01
9.920351e-02
9.445060e-02
8.995815e-02
8.570983e-02
8.169052e-02
7.788617e-02
7.428376e-02
7.087118e-02
6.763719e-02
6.457135e-02
6.166396e-02
5.890603e-02
5.628920e-02
5.380573e-02
5.144844e-02
4.921072e-02
4.708647e-02
4.507007e-02
4.315641e-02
4.134084e-02
3.961919e-02
3.798776e-02
3.644332e-02
3.498315e-02
3.360503e-02
3.230732e-02
3.108895e-02
2.994949e-02
2.888926e-02
2.790937e-02
2.701181e-02
2.619966e-02
2.547715e-02
2.484990e-02
2.432513e-02
2.391193e-02
2.362160e-02
2.346798e-02
9.865123e-01
9.563465e-01
9.234546e-01
8.883864e-01
8.517334e-01
8.140874e-01
7.760062e-01
7.379886e-01
7.004602e-01
6.637681e-01
6.281821e-01
5.939012e-01
5.610617e-01
5.297476e-01
5.000000e-01
4.718260e-01
4.452070e-01
4.201050e-01
3.964683e-01
3.742363e-01
3.533424e-01
3.337172e-01
3.152900e-01
2.979911e-01
2.817520e-01
2.665068e-01
2.521923e-01
2.387483e-01
2.261183e-01
2.142487e-01
2.030894e-01
1.925935e-01
1.827173e-01
1.734199e-01
1.646632e-01
1.564118e-01
1.486330e-01
1.412960e-01
1.343724e-01
1.278359e-01
1.216618e-01
1.158274e-01
1.103114e-01
1.050941e-01
1.001572e-01
9.548359e-02
9.105746e-02
8.686400e-02
8.288947e-02
7.912108e-02
7.554690e-02
7.215585e-02
6.893760e-02
6.588255e-02
6.298177e-02
6.022698e-02
5.761050e-02
5.512521e-02
5.276455e-02
5.052250e-02
4.839355e-02
4.637271e-02
4.445548e-02
4.263787e-02
4.091644e-02
3.928826e-02
3.775098e-02
3.630287e-02
3.494282e-02
3.367046e-02
3.248623e-02
3.139143e-02
3.038840e-02
2.948060e-02
2.867285e-02
2.797149e-02
2.738465e-02
2.692253e-02
2.659779e-02
2.642597e-02
9.877910e-01
9.604570e-01
9.305657e-01
8.985512e-01
8.648930e-01
8.300841e-01
7.946033e-01
7.588938e-01
7.233485e-01
6.883017e-01
6.540269e-01
6.207391e-01
5.885991e-01
5.577199e-01
5.281740e-01
5.000000e-01
4.732096e-01
4.477931e-01
4.237246e-01
4.009659e-01
3.794708e-01
3.591869e-01
3.400587e-01
3.220288e-01
3.050392e-01
2.890329e-01
2.739539e-01
2.597480e-01
2.463632e-01
2.337500e-01
2.218612e-01
2.106524e-01
2.000813e-01
1.901086e-01
1.806970e-01
1.718118e-01
1.634203e-01
1.554921e-01
1.479988e-01
1.409135e-01
1.342116e-01
1.278696e-01
1.218661e-01
1.161807e-01
1.107945e-01
1.056899e-01
1.008505e-01
9.626081e-02
9.190654e-02
8.777429e-02
8.385156e-02
8.012667e-02
7.658875e-02
7.322765e-02
7.003393e-02
6.699880e-02
6.411410e-02
6.137228e-02
5.876634e-02
5.628989e-02
5.393703e-02
5.170244e-02
4.958134e-02
4.756948e-02
4.566320e-02
4.385939e-02
4.215560e-02
4.055000e-02
3.904150e-02
3.762980e-02
3.631546e-02
3.510005e-02
3.398622e-02
3.297792e-02
3.208057e-02
3.130128e-02
3.064913e-02
3.013554e-02
2.977460e-02
2.958361e-02
9.889004e-01
9.640286e-01
9.367624e-01
9.074465e-01
8.764702e-01
8.442442e-01
8.111779e-01
7.776611e-01
7.440508e-01
7.106614e-01
6.777608e-01
6.455694e-01
6.142620e-01
5.839713e-01
5.547930e-01
5.267904e-01
5.000000e-01
4.744363e-01
4.500958e-01
4.269615e-01
4.050056e-01
3.841925e-01
3.644812e-01
3.458270e-01
3.281829e-01
3.115011e-01
2.957334e-01
2.808323e-01
2.667513e-01
2.534453e-01
2.408710e-01
2.289866e-01
2.177527e-01
2.071315e-01
1.970874e-01
1.875865e-01
1.785972e-01
1.700893e-01
1.620347e-01
1.544069e-01
1.471809e-01
1.403336e-01
1.338428e-01
1.276882e-01
1.218504e-01
1.163114e-01
1.110542e-01
1.060632e-01
1.013233e-01
9.682079e-02
9.254262e-02
8.847665e-02
8.461151e-02
8.093658e-02
7.744196e-02
7.411841e-02
7.095735e-02
6.795082e-02
6.509145e-02
6.237246e-02
5.978764e-02
5.733137e-02
5.499859e-02
5.278483e-02
5.068621e-02
4.869950e-02
4.682212e-02
4.505223e-02
4.338875e-02
4.183145e-02
4.038109e-02
3.903949e-02
3.780970e-02
3.669616e-02
3.570494e-02
3.484398e-02
3.412338e-02
3.355581e-02
3.315691e-02
3.294583e-02
9.898701e-01
9.671547e-01
9.421996e-01
9.152792e-01
8.867108e-01
8.568360e-01
8.260039e-01
7.945555e-01
7.628111e-01
7.310616e-01
6.995632e-01
6.685343e-01
6.381556e-01
6.085719e-01
5.798950e-01
5.522069e-01
5.255637e-01
5.000000e-01
4.755318e-01
4.521602e-01
4.298748e-01
4.086553e-01
3.884748e-01
3.693009e-01
3.510977e-01
3.338266e-01
3.174479e-01
3.019209e-01
2.872053e-01
2.732609e-01
2.600487e-01
2.475305e-01
2.356698e-01
2.244311e-01
2.137807e-01
2.036864e-01
1.941175e-01
1.850450e-01
1.764413e-01
1.682804e-01
1.605376e-01
1.531898e-01
1.462150e-01
1.395926e-01
1.333032e-01
1.273286e-01
1.216515e-01
1.162558e-01
1.111263e-01
1.062488e-01
1.016099e-01
9.719700e-02
9.299840e-02
8.900306e-02
8.520069e-02
8.158167e-02
7.813704e-02
7.485847e-02
7.173827e-02
6.876933e-02
6.594516e-02
6.325984e-02
6.070809e-02
5.828524e-02
5.598723e-02
5.381072e-02
5.175306e-02
4.981237e-02
4.798763e-02
4.627875e-02
4.468667e-02
4.321352e-02
4.186275e-02
4.063937e-02
3.955014e-02
3.860387e-02
3.781176e-02
3.718778e-02
3.674920e-02
3.651710e-02
9.907236e-01
9.699087e-01
9.469995e-01
9.222151e-01
8.958139e-01
8.680806e-01
8.393122e-01
8.098052e-01
7.798451e-01
7.496977e-01
7.196034e-01
6.897736e-01
6.603894e-01
6.316014e-01
6.035317e-01
5.762754e-01
5.499042e-01
5.244682e-01
5.000000e-01
4.765166e-01
4.540224e-01
4.325116e-01
4.119702e-01
3.923776e-01
3.737085e-01
3.559338e-01
3.390220e-01
3.229398e-01
3.076531e-01
2.931272e-01
2.793277e-01
2.662205e-01
2.537722e-01
2.419504e-01
2.307236e-01
2.200615e-01
2.099350e-01
2.003163e-01
1.911789e-01
1.824974e-01
1.742478e-01
1.664074e-01
1.589543e-01
1.518683e-01
1.451298e-01
1.387206e-01
1.326234e-01
1.268218e-01
1.213005e-01
1.160450e-01
1.110415e-01
1.062774e-01
1.017405e-01
9.741941e-02
9.330360e-02
8.938311e-02
8.564866e-02
8.209164e-02
7.870405e-02
7.547850e-02
7.240825e-02
6.948716e-02
6.670974e-02
6.407113e-02
6.156716e-02
5.919439e-02
5.695012e-02
5.483249e-02
5.284055e-02
5.097437e-02
4.923512e-02
4.762527e-02
4.614873e-02
4.481109e-02
4.361985e-02
4.258476e-02
4.171816e-02
4.103542e-02
4.055549e-02
4.030150e-02
9.914791e-01
9.723489e-01
9.512602e-01
9.283878e-01
9.039427e-01
8.781619e-01
8.512977e-01
8.236072e-01
7.953430e-01
7.667458e-01
7.380385e-01
7.094221e-01
6.810735e-01