# vtk DataFile Version 3.0
CD_1JC
ASCII
DATASET STRUCTURED_GRID
DIMENSIONS 41 41 1
POINTS 1681 double
0.000000e+00 0.000000e+00 0.0
2.500000e-02 0.000000e+00 0.0
5.000000e-02 0.000000e+00 0.0
7.500000e-02 0.000000e+00 0.0
1.000000e-01 0.000000e+00 0.0
1.250000e-01 0.000000e+00 0.0
1.500000e-01 0.000000e+00 0.0
1.750000e-01 0.000000e+00 0.0
2.000000e-01 0.000000e+00 0.0
2.250000e-01 0.000000e+00 0.0
2.500000e-01 0.000000e+00 0.0
2.750000e-01 0.000000e+00 0.0
3.000000e-01 0.000000e+00 0.0
3.250000e-01 0.000000e+00 0.0
3.500000e-01 0.000000e+00 0.0
3.750000e-01 0.000000e+00 0.0
4.000000e-01 0.000000e+00 0.0
4.250000e-01 0.000000e+00 0.0
4.500000e-01 0.000000e+00 0.0
4.750000e-01 0.000000e+00 0.0
5.000000e-01 0.000000e+00 0.0
5.250000e-01 0.000000e+00 0.0
5.500000e-01 0.000000e+00 0.0
5.750000e-01 0.000000e+00 0.0
6.000000e-01 0.000000e+00 0.0
6.250000e-01 0.000000e+00 0.0
6.500000e-01 0.000000e+00 0.0
6.750000e-01 0.000000e+00 0.0
7.000000e-01 0.000000e+00 0.0
7.250000e-01 0.000000e+00 0.0
7.500000e-01 0.000000e+00 0.0
7.750000e-01 0.000000e+00 0.0
8.000000e-01 0.000000e+00 0.0
8.250000e-01 0.000000e+00 0.0
8.500000e-01 0.000000e+00 0.0
8.750000e-01 0.000000e+00 0.0
9.000000e-01 0.000000e+00 0.0
9.250000e-01 0.000000e+00 0.0
9.500000e-01 0.000000e+00 0.0
9.750000e-01 0.000000e+00 0.0
1.000000e+00 0.000000e+00 0.0
0.000000e+00 2.500000e-02 0.0
2.500000e-02 2.500000e-02 0.0
5.000000e-02 2.500000e-02 0.0
7.500000e-02 2.500000e-02 0.0
1.000000e-01 2.500000e-02 0.0
1.250000e-01 2.500000e-02 0.0
1.500000e-01 2.500000e-02 0.0
1.750000e-01 2.500000e-02 0.0
2.000000e-01 2.500000e-02 0.0
2.250000e-01 2.500000e-02 0.0
2.500000e-01 2.500000e-02 0.0
2.750000e-01 2.500000e-02 0.0
3.000000e-01 2.500000e-02 0.0
3.250000e-01 2.500000e-02 0.0
3.500000e-01 2.500000e-02 0.0
3.750000e-01 2.500000e-02 0.0
4.000000e-01 2.500000e-02 0.0
4.250000e-01 2.500000e-02 0.0
4.500000e-01 2.500000e-02 0.0
4.750000e-01 2.500000e-02 0.0
5.000000e-01 2.500000e-02 0.0
5.250000e-01 2.500000e-02 0.0
5.500000e-01 2.500000e-02 0.0
5.750000e-01 2.500000e-02 0.0
6.000000e-01 2.500000e-02 0.0
6.250000e-01 2.500000e-02 0.0
6.500000e-01 2.500000e-02 0.0
6.750000e-01 2.500000e-02 0.0
7.000000e-01 2.500000e-02 0.0
7.250000e-01 2.500000e-02 0.0
7.500000e-01 2.500000e-02 0.0
7.750000e-01 2.500000e-02 0.0
8.000000e-01 2.500000e-02 0.0
8.250000e-01 2.500000e-02 0.0
8.500000e-01 2.500000e-02 0.0
8.750000e-01 2.500000e-02 0.0
9.000000e-01 2.500000e-02 0.0
9.250000e-01 2.500000e-02 0.0
9.500000e-01 2.500000e-02 0.0
9.750000e-01 2.500000e-02 0.0
1.000000e+00 2.500000e-02 0.0
0.000000e+00 5.000000e-02 0.0
2.500000e-02 5.000000e-02 0.0
5.000000e-02 5.000000e-02 0.0
7.500000e-02 5.000000e-02 0.0
1.000000e-01 5.000000e-02 0.0
1.250000e-01 5.000000e-02 0.0
1.500000e-01 5.000000e-02 0.0
1.750000e-01 5.000000e-02 0.0
2.000000e-01 5.000000e-02 0.0
2.250000e-01 5.000000e-02 0.0
2.500000e-01 5.000000e-02 0.0
2.750000e-01 5.000000e-02 0.0
3.000000e-01 5.000000e-02 0.0
3.250000e-01 5.000000e-02 0.0
3.500000e-01 5.000000e-02 0.0
3.750000e-01 5.000000e-02 0.0
4.000000e-01 5.000000e-02 0.0
4.250000e-01 5.000000e-02 0.0
4.500000e-01 5.000000e-02 0.0
4.750000e-01 5.000000e-02 0.0
5.000000e-01 5.000000e-02 0.0
5.250000e-01 5.000000e-02 0.0
5.500000e-01 5.000000e-02 0.0
5.750000e-01 5.000000e-02 0.0
6.000000e-01 5.000000e-02 0.0
6.250000e-01 5.000000e-02 0.0
6.500000e-01 5.000000e-02 0.0
6.750000e-01 5.000000e-02 0.0
7.000000e-01 5.000000e-02 0.0
7.250000e-01 5.000000e-02 0.0
7.500000e-01 5.000000e-02 0.0
7.750000e-01 5.000000e-02 0.0
8.000000e-01 5.000000e-02 0.0
8.250000e-01 5.000000e-02 0.0
8.500000e-01 5.000000e-02 0.0
8.750000e-01 5.000000e-02 0.0
9.000000e-01 5.000000e-02 0.0
9.250000e-01 5.000000e-02 0.0
9.500000e-01 5.000000e-02 0.0
9.750000e-01 5.000000e-02 0.0
1.000000e+00 5.000000e-02 0.0
0.000000e+00 7.500000e-02 0.0
2.500000e-02 7.500000e-02 0.0
5.000000e-02 7.500000e-02 0.0
7.500000e-02 7.500000e-02 0.0
1.000000e-01 7.500000e-02 0.0
1.250000e-01 7.500000e-02 0.0
1.500000e-01 7.500000e-02 0.0
1.750000e-01 7.500000e-02 0.0
2.000000e-01 7.500000e-02 0.0
2.250000e-01 7.500000e-02 0.0
2.500000e-01 7.500000e-02 0.0
2.750000e-01 7.500000e-02 0.0
3.000000e-01 7.500000e-02 0.0
3.250000e-01 7.500000e-02 0.0
3.500000e-01 7.500000e-02 0.0
3.750000e-01 7.500000e-02 0.0
4.000000e-01 7.500000e-02 0.0
4.250000e-01 7.500000e-02 0.0
4.500000e-01 7.500000e-02 0.0
4.750000e-01 7.500000e-02 0.0
5.000000e-01 7.500000e-02 0.0
5.250000e-01 7.500000e-02 0.0
5.500000e-01 7.500000e-02 0.0
5.750000e-01 7.500000e-02 0.0
6.000000e-01 7.500000e-02 0.0
6.250000e-01 7.500000e-02 0.0
6.500000e-01 7.500000e-02 0.0
6.750000e-01 7.500000e-02 0.0
7.000000e-01 7.500000e-02 0.0
7.250000e-01 7.500000e-02 0.0
7.500000e-01 7.500000e-02 0.0
7.750000e-01 7.500000e-02 0.0
8.000000e-01 7.500000e-02 0.0
8.250000e-01 7.500000e-02 0.0
8.500000e-01 7.500000e-02 0.0
8.750000e-01 7.500000e-02 0.0
9.000000e-01 7.500000e-02 0.0
9.250000e-01 7.500000e-02 0.0
9.500000e-01 7.500000e-02 0.0
9.750000e-01 7.500000e-02 0.0
1.000000e+00 7.500000e-02 0.0
0.000000e+00 1.000000e-01 0.0
2.500000e-02 1.000000e-01 0.0
5.000000e-02 1.000000e-01 0.0
7.500000e-02 1.000000e-01 0.0
1.000000e-01 1.000000e-01 0.0
1.250000e-01 1.000000e-01 0.0
1.500000e-01 1.000000e-01 0.0
1.750000e-01 1.000000e-01 0.0
2.000000e-01 1.000000e-01 0.0
2.250000e-01 1.000000e-01 0.0
2.500000e-01 1.000000e-01 0.0
2.750000e-01 1.000000e-01 0.0
3.000000e-01 1.000000e-01 0.0
3.250000e-01 1.000000e-01 0.0
3.500000e-01 1.000000e-01 0.0
3.750000e-01 1.000000e-01 0.0
4.000000e-01 1.000000e-01 0.0
4.250000e-01 1.000000e-01 0.0
4.500000e-01 1.000000e-01 0.0
4.750000e-01 1.000000e-01 0.0
5.000000e-01 1.000000e-01 0.0
5.250000e-01 1.000000e-01 0.0
5.500000e-01 1.000000e-01 0.0
5.750000e-01 1.000000e-01 0.0
6.000000e-01 1.000000e-01 0.0
6.250000e-01 1.000000e-01 0.0
6.500000e-01 1.000000e-01 0.0
6.750000e-01 1.000000e-01 0.0
7.000000e-01 1.000000e-01 0.0
7.250000e-01 1.000000e-01 0.0
7.500000e-01 1.000000e-01 0.0
7.750000e-01 1.000000e-01 0.0
8.000000e-01 1.000000e-01 0.0
8.250000e-01 1.000000e-01 0.0
8.500000e-01 1.000000e-01 0.0
8.750000e-01 1.000000e-01 0.0
9.000000e-01 1.000000e-01 0.0
9.250000e-01 1.000000e-01 0.0
9.500000e-01 1.000000e-01 0.0
9.750000e-01 1.000000e-01 0.0
1.000000e+00 1.000000e-01 0.0
0.000000e+00 1.250000e-01 0.0
2.500000e-02 1.250000e-01 0.0
5.000000e-02 1.250000e-01 0.0
7.500000e-02 1.250000e-01 0.0
1.000000e-01 1.250000e-01 0.0
1.250000e-01 1.250000e-01 0.0
1.500000e-01 1.250000e-01 0.0
1.750000e-01 1.250000e-01 0.0
2.000000e-01 1.250000e-01 0.0
2.250000e-01 1.250000e-01 0.0
2.500000e-01 1.250000e-01 0.0
2.750000e-01 1.250000e-01 0.0
3.000000e-01 1.250000e-01 0.0
3.250000e-01 1.250000e-01 0.0
3.500000e-01 1.250000e-01 0.0
3.750000e-01 1.250000e-01 0.0
4.000000e-01 1.250000e-01 0.0
4.250000e-01 1.250000e-01 0.0
4.500000e-01 1.250000e-01 0.0
4.750000e-01 1.250000e-01 0.0
5.000000e-01 1.250000e-01 0.0
5.250000e-01 1.250000e-01 0.0
5.500000e-01 1.250000e-01 0.0
5.750000e-01 1.250000e-01 0.0
6.000000e-01 1.250000e-01 0.0
6.250000e-01 1.250000e-01 0.0
6.500000e-01 1.250000e-01 0.0
6.750000e-01 1.250000e-01 0.0
7.000000e-01 1.250000e-01 0.0
7.250000e-01 1.250000e-01 0.0
7.500000e-01 1.250000e-01 0.0
7.750000e-01 1.250000e-01 0.0
8.000000e-01 1.250000e-01 0.0
8.250000e-01 1.250000e-01 0.0
8.500000e-01 1.250000e-01 0.0
8.750000e-01 1.250000e-01 0.0
9.000000e-01 1.250000e-01 0.0
9.250000e-01 1.250000e-01 0.0
9.500000e-01 1.250000e-01 0.0
9.750000e-01 1.250000e-01 0.0
1.000000e+00 1.250000e-01 0.0
0.000000e+00 1.500000e-01 0.0
2.500000e-02 1.500000e-01 0.0
5.000000e-02 1.500000e-01 0.0
7.500000e-02 1.500000e-01 0.0
1.000000e-01 1.500000e-01 0.0
1.250000e-01 1.500000e-01 0.0
1.500000e-01 1.500000e-01 0.0
1.750000e-01 1.500000e-01 0.0
2.000000e-01 1.500000e-01 0.0
2.250000e-01 1.500000e-01 0.0
2.500000e-01 1.500000e-01 0.0
2.750000e-01 1.500000e-01 0.0
3.000000e-01 1.500000e-01 0.0
3.250000e-01 1.500000e-01 0.0
3.500000e-01 1.500000e-01 0.0
3.750000e-01 1.500000e-01 0.0
4.000000e-01 1.500000e-01 0.0
4.250000e-01 1.500000e-01 0.0
4.500000e-01 1.500000e-01 0.0
4.750000e-01 1.500000e-01 0.0
5.000000e-01 1.500000e-01 0.0
5.250000e-01 1.500000e-01 0.0
5.500000e-01 1.500000e-01 0.0
5.750000e-01 1.500000e-01 0.0
6.000000e-01 1.500000e-01 0.0
6.250000e-01 1.500000e-01 0.0
6.500000e-01 1.500000e-01 0.0
6.750000e-01 1.500000e-01 0.0
7.000000e-01 1.500000e-01 0.0
7.250000e-01 1.500000e-01 0.0
7.500000e-01 1.500000e-01 0.0
7.750000e-01 1.500000e-01 0.0
8.000000e-01 1.500000e-01 0.0
8.250000e-01 1.500000e-01 0.0
8.500000e-01 1.500000e-01 0.0
8.750000e-01 1.500000e-01 0.0
9.000000e-01 1.500000e-01 0.0
9.250000e-01 1.500000e-01 0.0
9.500000e-01 1.500000e-01 0.0
9.750000e-01 1.500000e-01 0.0
1.000000e+00 1.500000e-01 0.0
0.000000e+00 1.750000e-01 0.0
2.500000e-02 1.750000e-01 0.0
5.000000e-02 1.750000e-01 0.0
7.500000e-02 1.750000e-01 0.0
1.000000e-01 1.750000e-01 0.0
1.250000e-01 1.750000e-01 0.0
1.500000e-01 1.750000e-01 0.0
1.750000e-01 1.750000e-01 0.0
2.000000e-01 1.750000e-01 0.0
2.250000e-01 1.750000e-01 0.0
2.500000e-01 1.750000e-01 0.0
2.750000e-01 1.750000e-01 0.0
3.000000e-01 1.750000e-01 0.0
3.250000e-01 1.750000e-01 0.0
3.500000e-01 1.750000e-01 0.0
3.750000e-01 1.750000e-01 0.0
4.000000e-01 1.750000e-01 0.0
4.250000e-01 1.750000e-01 0.0
4.500000e-01 1.750000e-01 0.0
4.750000e-01 1.750000e-01 0.0
5.000000e-01 1.750000e-01 0.0
5.250000e-01 1.750000e-01 0.0
5.500000e-01 1.750000e-01 0.0
5.750000e-01 1.750000e-01 0.0
6.000000e-01 1.750000e-01 0.0
6.250000e-01 1.750000e-01 0.0
6.500000e-01 1.750000e-01 0.0
6.750000e-01 1.750000e-01 0.0
7.000000e-01 1.750000e-01 0.0
7.250000e-01 1.750000e-01 0.0
7.500000e-01 1.750000e-01 0.0
7.750000e-01 1.750000e-01 0.0
8.000000e-01 1.750000e-01 0.0
8.250000e-01 1.750000e-01 0.0
8.500000e-01 1.750000e-01 0.0
8.750000e-01 1.750000e-01 0.0
9.000000e-01 1.750000e-01 0.0
9.250000e-01 1.750000e-01 0.0
9.500000e-01 1.750000e-01 0.0
9.750000e-01 1.750000e-01 0.0
1.000000e+00 1.750000e-01 0.0
0.000000e+00 2.000000e-01 0.0
[...]
CELL_DATA 1600
SCALARS Temperature double 1
LOOKUP_TABLE default
5.000000e-01
1.581680e-01
4.579898e-02
1.109979e-02
1.515928e-03
-5.394146e-04
-6.423732e-04
-4.032370e-04
-2.044047e-04
-9.030916e-05
-3.503249e-05
-1.140660e-05
-2.553103e-06
1.760439e-07
6.900214e-07
5.632498e-07
3.443256e-07
1.802258e-07
8.353164e-08
3.411721e-08
1.168435e-08
2.737693e-09
-2.093607e-10
-8.218893e-10
-6.980850e-10
-4.440189e-10
-2.416786e-10
-1.165427e-10
-4.968517e-11
-1.796366e-11
-4.686246e-12
-2.098315e-14
1.106941e-12
1.029810e-12
6.870934e-13
3.882063e-13
1.938565e-13
8.583611e-14
3.263970e-14
9.175597e-15
8.418320e-01
5.000000e-01
2.674382e-01
1.331800e-01
6.253937e-02
2.777109e-02
1.160784e-02
4.503971e-03
1.571293e-03
4.531194e-04
7.443653e-05
-2.757438e-05
-3.900785e-05
-2.806905e-05
-1.622939e-05
-8.215379e-06
-3.719116e-06
-1.490247e-06
-5.003757e-07
-1.128299e-07
1.220851e-08
3.692616e-08
3.069515e-08
1.936107e-08
1.049914e-08
5.059387e-09
2.162336e-09
7.881448e-10
2.112088e-10
6.611318e-12
-4.449582e-11
-4.275858e-11
-2.889219e-11
-1.646987e-11
-8.297249e-12
-3.715174e-12
-1.438393e-12
-4.338334e-13
-5.264321e-14
5.519180e-14
9.542010e-01
7.325618e-01
5.000000e-01
3.134224e-01
1.838623e-01
1.020543e-01
5.392909e-02
2.720657e-02
1.310229e-02
6.004509e-03
2.599372e-03
1.047467e-03
3.810473e-04
1.158479e-04
2.147437e-05
-5.830089e-06
-9.843374e-06
-7.505681e-06
-4.541599e-06
-2.403256e-06
-1.142573e-06
-4.869979e-07
-1.800322e-07
-5.141694e-08
-5.078739e-09
7.383547e-09
7.973854e-09
5.590617e-09
3.260185e-09
1.677921e-09
7.720174e-10
3.123782e-10
1.038802e-10
2.105377e-11
-5.573854e-12
-1.030021e-11
-8.243740e-12
-5.179033e-12
-2.823644e-12
-1.329469e-12
9.889002e-01
8.668200e-01
6.865776e-01
5.000000e-01
3.398037e-01
2.179024e-01
1.328875e-01
7.749025e-02
4.335966e-02
2.332712e-02
1.207309e-02
6.005654e-03
2.863531e-03
1.301763e-03
5.588072e-04
2.224557e-04
7.905682e-05
2.262991e-05
3.014320e-06
-2.295189e-06
-2.751266e-06
-1.978821e-06
-1.174792e-06
-6.182908e-07
-2.943840e-07
-1.262848e-07
-4.725933e-08
-1.385207e-08
-1.624447e-09
1.782414e-09
2.036170e-09
1.461397e-09
8.682371e-10
4.554067e-10
2.142905e-10
8.944578e-11
3.143149e-11
7.590003e-12
-5.773103e-13
-2.315094e-12
9.984841e-01
9.374606e-01
8.161377e-01
6.601963e-01
5.000000e-01
3.573955e-01
2.427943e-01
1.576426e-01
9.825104e-02
5.897050e-02
3.416332e-02
1.913105e-02
1.036206e-02
5.427398e-03
2.745763e-03
1.338445e-03
6.259719e-04
2.788674e-04
1.168608e-04
4.497387e-05
1.505922e-05
3.691548e-06
-1.471643e-08
-8.488417e-07
-7.738976e-07
-5.151879e-07
-2.947970e-07
-1.517608e-07
-7.111822e-08
-3.007353e-08
-1.105023e-08
-3.113655e-09
-2.597065e-10
5.028194e-10
5.304019e-10
3.733489e-10
2.203244e-10
1.154094e-10
5.444929e-11
2.219558e-11
1.000539e+00
9.722289e-01
8.979457e-01
7.820976e-01
6.426045e-01
5.000000e-01
3.701950e-01
2.620285e-01
1.780330e-01
1.165122e-01
7.364817e-02
4.506194e-02
2.673088e-02
1.539025e-02
8.605196e-03
4.672867e-03
2.463102e-03
1.258677e-03
6.221885e-04
2.964498e-04
1.353644e-04
5.867352e-05
2.373511e-05
8.658300e-06
2.608519e-06
4.361624e-07
-1.935118e-07
-2.785504e-07
-2.125024e-07
-1.317956e-07
-7.241886e-08
-3.622131e-08
-1.655628e-08
-6.814211e-09
-2.405789e-09
-6.152782e-10
2.423467e-12
1.502299e-10
1.401048e-10
9.188290e-11
1.000642e+00
9.883922e-01
9.460709e-01
8.671125e-01
7.572057e-01
6.298050e-01
5.000000e-01
3.800488e-01
2.774756e-01
1.951877e-01
1.326474e-01
8.729106e-02
5.573154e-02
3.457530e-02
2.086814e-02
1.226380e-02
7.021243e-03
3.916705e-03
2.128373e-03
1.125901e-03
5.790772e-04
2.889919e-04
1.395092e-04
6.483510e-05
2.878716e-05
1.205489e-05
4.647028e-06
1.561855e-06
3.848163e-07
-2.034708e-09
-9.068956e-08
-8.369543e-08
-5.661445e-08
-3.304798e-08
-1.744637e-08
-8.449937e-09
-3.743589e-09
-1.483287e-09
-4.914478e-10
-1.013056e-10
1.000403e+00
9.954960e-01
9.727934e-01
9.225098e-01
8.423574e-01
7.379715e-01
6.199512e-01
5.000000e-01
3.879400e-01
2.902394e-01
2.098729e-01
1.469958e-01
9.991757e-02
6.602323e-02
4.247048e-02
2.662694e-02
1.628553e-02
9.723630e-03
5.670167e-03
3.229919e-03
1.797159e-03
9.763766e-04
5.175613e-04
2.673585e-04
1.343432e-04
6.548462e-05
3.083811e-05
1.394179e-05
5.989152e-06
2.400431e-06
8.646463e-07
2.535435e-07
3.661376e-08
-2.464388e-08
-3.149202e-08
-2.361228e-08
-1.464691e-08
-8.116197e-09
-4.124166e-09
-1.873888e-09
1.000204e+00
9.984287e-01
9.868977e-01
9.566403e-01
9.017490e-01
8.219670e-01
7.225244e-01
6.120600e-01
5.000000e-01
3.944460e-01
3.010196e-01
2.226258e-01
1.598414e-01
1.115936e-01
7.586776e-02
5.029189e-02
3.254149e-02
2.057190e-02
1.271544e-02
7.688740e-03
4.550054e-03
2.635769e-03
1.494633e-03
8.294883e-04
4.503359e-04
2.389904e-04
1.238333e-04
6.254182e-05
3.071264e-05
1.461251e-05
6.699788e-06
2.935249e-06
1.211185e-06
4.578861e-07
1.486723e-07
3.296575e-08
-3.736007e-09
-1.118848e-08
-9.608251e-09
-6.173148e-09
1.000090e+00
9.995469e-01
9.939955e-01
9.766729e-01
9.410295e-01
8.834878e-01
8.048123e-01
7.097606e-01
6.055540e-01
5.000000e-01
3.999308e-01
3.102836e-01
2.338344e-01
1.714166e-01
1.224005e-01
8.524060e-02
5.796102e-02
3.852022e-02
2.504286e-02
1.593834e-02
9.936449e-03
6.070937e-03
3.636360e-03
2.135773e-03
1.230119e-03
6.947039e-04
3.845830e-04
2.085936e-04
1.107641e-04
5.751768e-05
2.916254e-05
1.440482e-05
6.909912e-06
3.204022e-06
1.425823e-06
6.018246e-07
2.358342e-07
8.195416e-08
2.209131e-08
1.604262e-09
1.000035e+00
9.999256e-01
9.974006e-01
9.879269e-01
9.658367e-01
9.263518e-01
8.673526e-01
7.901271e-01
6.989804e-01
6.000692e-01
5.000000e-01
4.046372e-01
3.183578e-01
2.437863e-01
1.819101e-01
1.324211e-01
9.414225e-02
6.542991e-02
4.449685e-02
2.963446e-02
1.934146e-02
1.237860e-02
7.772589e-03
4.790150e-03
2.898374e-03
1.722139e-03
1.004912e-03
5.758614e-04
3.240131e-04
1.789442e-04
9.695177e-05
5.149300e-05
2.678145e-05
1.362001e-05
6.759246e-06
3.264076e-06
1.527496e-06
6.884531e-07
2.960480e-07
1.159910e-07
1.000011e+00
1.000028e+00
9.989525e-01
9.939943e-01
9.808690e-01
9.549381e-01
9.127089e-01
8.530042e-01
7.773742e-01
6.897164e-01
5.953628e-01
5.000000e-01
4.087339e-01
3.254775e-01
2.526997e-01
1.914757e-01
1.417334e-01
1.025869e-01
7.267088e-02
5.042388e-02
3.429619e-02
2.288135e-02
1.498310e-02
9.634497e-03
6.086291e-03
3.778560e-03
2.306046e-03
1.383756e-03
8.164755e-04
4.737190e-04
2.702388e-04
1.515400e-04
8.350294e-05
4.518978e-05
2.400052e-05
1.249693e-05
6.370795e-06
3.173756e-06
1.542142e-06
7.070230e-07
1.000003e+00
1.000039e+00
9.996190e-01
9.971365e-01
9.896379e-01
9.732691e-01
9.442685e-01
9.000824e-01
8.401586e-01
7.661656e-01
6.816422e-01
5.912661e-01
5.000000e-01
4.123425e-01
3.318177e-01
2.607431e-01
2.002394e-01
1.504085e-01
1.105959e-01
7.966979e-02
5.626774e-02
3.898845e-02
2.652141e-02
1.772096e-02
1.163662e-02
7.512867e-03
4.770752e-03
2.980607e-03
1.832590e-03
1.109034e-03
6.606759e-04
3.874436e-04
2.236562e-04
1.270695e-04
7.103607e-05
3.905963e-05
2.111338e-05
1.121099e-05
5.846946e-06
2.903802e-06
9.999998e-01
1.000028e+00
9.998842e-01
9.986982e-01
9.945726e-01
9.846097e-01
9.654247e-01
9.339768e-01
8.884064e-01
8.285834e-01
7.562137e-01
6.745225e-01
5.876575e-01
5.000000e-01
4.155530e-01
3.375114e-01
2.680494e-01
2.083054e-01
1.585099e-01
1.181938e-01
8.642143e-02
6.200512e-02
4.368046e-02
3.023112e-02
2.056653e-02
1.375998e-02
9.057583e-03
5.868262e-03
3.743272e-03
2.351564e-03
1.455195e-03
8.871886e-04
5.329501e-04
3.154657e-04
1.839936e-04
1.057295e-04
5.984867e-05
3.336143e-05
1.832327e-05
9.621092e-06
9.999993e-01
1.000016e+00
9.999785e-01
9.994412e-01
9.972542e-01
9.913948e-01
9.791319e-01
9.575295e-01
9.241322e-01
8.775995e-01
8.180899e-01
7.473003e-01
6.681823e-01
5.844470e-01
5.000000e-01
4.184338e-01
3.426616e-01
2.747246e-01
2.157601e-01
1.660939e-01
1.254063e-01
9.292650e-02
6.762029e-02
4.834840e-02
3.398519e-02
2.349730e-02
1.598700e-02
1.070825e-02
7.063754e-03
4.590527e-03
2.939846e-03
1.855784e-03
1.154936e-03
7.087314e-04
4.288887e-04
2.559586e-04
1.506458e-04
8.743088e-05
5.008192e-05
2.748510e-05
9.999994e-01
1.000008e+00
1.000006e+00
9.997775e-01
9.986616e-01
9.953271e-01
9.877362e-01
9.733731e-01
9.497081e-01
9.147594e-01
8.675789e-01
8.085243e-01
7.392569e-01
6.624886e-01
5.815662e-01
5.000000e-01
4.210378e-01
3.473500e-01
2.808546e-01
2.226760e-01
1.732105e-01
1.322588e-01
9.918955e-02
7.310312e-02
5.297403e-02
3.776279e-02
2.649373e-02
1.830161e-02
1.245309e-02
8.349587e-03
5.518187e-03
3.595825e-03
2.310908e-03
1.465021e-03
9.163481e-04
5.655807e-04
3.445013e-04
2.070891e-04
1.229915e-04
7.008047e-05
9.999997e-01
1.000004e+00
1.000010e+00
9.999209e-01
9.993740e-01
9.975369e-01
9.929788e-01
9.837145e-01
9.674585e-01
9.420390e-01
9.058578e-01
8.582666e-01
7.997606e-01
7.319506e-01
6.573384e-01
5.789622e-01
5.000000e-01
4.234068e-01
3.516418e-01
2.865097e-01
2.291144e-01
1.799035e-01
1.387755e-01
1.052175e-01
7.844760e-02
5.754350e-02
4.154685e-02
2.953896e-02
2.068931e-02
1.428093e-02
9.718068e-03
6.521632e-03
4.317300e-03
2.820076e-03
1.818034e-03
1.156968e-03
7.269283e-04
4.509724e-04
2.765943e-04
1.629218e-04
9.999998e-01
1.000001e+00
1.000008e+00
9.999774e-01
9.997211e-01
9.987413e-01
9.960833e-01
9.902764e-01
9.794281e-01
9.614798e-01
9.345701e-01
8.974131e-01
8.495915e-01
7.916946e-01
7.252754e-01
6.526500e-01
5.765932e-01
5.000000e-01
4.255741e-01
3.555900e-01
2.917484e-01
2.351272e-01
1.862116e-01
1.449796e-01
1.110189e-01
8.365075e-02
6.204645e-02
4.532343e-02
3.261852e-02
2.313711e-02
1.618134e-02
1.116163e-02
7.595988e-03
5.101625e-03
3.382310e-03
2.214117e-03
1.431398e-03
9.140045e-04
5.772452e-04
3.504023e-04
9.999999e-01
1.000001e+00
1.000005e+00
9.999970e-01
9.998831e-01
9.993778e-01
9.978716e-01
9.943298e-01
9.872846e-01
9.749571e-01
9.555032e-01
9.273291e-01
8.894041e-01
8.414901e-01
7.842399e-01
7.191454e-01
6.483582e-01
5.744259e-01
5.000000e-01
4.275670e-01
3.592382e-01
2.966192e-01
2.407590e-01
1.921692e-01
1.508927e-01
1.166028e-01
8.871181e-02
6.647527e-02
4.908122e-02
3.572003e-02
2.563342e-02
1.814466e-02
1.267297e-02
8.736276e-03
5.945845e-03
3.996239e-03
2.653032e-03
1.740015e-03
1.129063e-03
7.046647e-04
1.000000e+00
1.000000e+00
1.000002e+00
1.000002e+00
9.999550e-01
9.997036e-01
9.988741e-01
9.967701e-01
9.923113e-01
9.840617e-01
9.703655e-01
9.495761e-01
9.203302e-01
8.818062e-01
8.339061e-01
7.773240e-01
7.134903e-01
6.444100e-01
5.724330e-01
5.000000e-01
4.294076e-01
3.626227e-01
3.011634e-01
2.460482e-01
1.978066e-01
1.565347e-01
1.219789e-01
9.363164e-02
7.082452e-02
5.281109e-02
3.883293e-02
2.816800e-02
2.016199e-02
1.424510e-02
9.937519e-03
6.846800e-03
4.660202e-03
3.134022e-03
2.085673e-03
1.335888e-03
1.000000e+00
1.000000e+00
1.000001e+00
1.000003e+00
9.999849e-01
9.998646e-01
9.994209e-01
9.982028e-01
9.954499e-01
9.900636e-01
9.806585e-01
9.657038e-01
9.437323e-01
9.135786e-01
8.745937e-01
8.267895e-01
7.708856e-01
7.082516e-01
6.407618e-01
5.705924e-01
5.000000e-01
4.311144e-01
3.657738e-01
3.054158e-01
2.510278e-01
2.031507e-01
1.619240e-01
1.271569e-01
9.841226e-02
7.509050e-02
5.650573e-02
4.194828e-02
3.073180e-02
2.222524e-02
1.587144e-02
1.119482e-02
7.801236e-03
5.371939e-03
3.661111e-03
2.402946e-03
1.000000e+00
1.000000e+00
1.000000e+00
1.000002e+00
9.999963e-01
9.999413e-01
9.997110e-01
9.990236e-01
9.973642e-01
9.939291e-01
9.876214e-01
9.771187e-01
9.610115e-01
9.379949e-01
9.070735e-01
8.677412e-01
8.200965e-01
7.648728e-01
7.033808e-01
6.373773e-01
5.688856e-01
5.000000e-01
4.327029e-01
3.687172e-01
3.094065e-01
2.557267e-01
2.082255e-01
1.670777e-01
1.321464e-01
1.030565e-01
7.927082e-02
6.015933e-02
4.505850e-02
3.331684e-02
2.432703e-02
1.754578e-02
1.250347e-02
8.805191e-03
6.137787e-03
4.122896e-03
1.000000e+00
1.000000e+00
1.000000e+00
1.000001e+00
1.000000e+00
9.999763e-01
9.998605e-01
9.994824e-01
9.985054e-01
9.963636e-01
9.922274e-01
9.850169e-01
9.734786e-01
9.563195e-01
9.323797e-01
9.008105e-01
8.612245e-01
8.137884e-01
7.592410e-01
6.988366e-01
6.342262e-01
5.672971e-01
5.000000e-01
4.341863e-01
3.714749e-01
3.131612e-01
2.601703e-01
2.130525e-01
1.720114e-01
1.369565e-01
1.075678e-01
8.336420e-02
6.376731e-02
4.815719e-02
3.591614e-02
2.646070e-02
1.926246e-02
1.385783e-02
9.869227e-03
6.777367e-03
1.000000e+00
1.000000e+00
1.000000e+00
1.000001e+00
1.000001e+00
9.999913e-01
9.999352e-01
9.997326e-01
9.991705e-01
9.978642e-01
9.952099e-01
9.903655e-01
9.822790e-01
9.697689e-01
9.516516e-01
9.268969e-01
8.947825e-01
8.550204e-01
8.078308e-01
7.539518e-01
6.945842e-01
6.312828e-01
5.658137e-01
5.000000e-01
4.355755e-01
3.740655e-01
3.167023e-01
2.643808e-01
2.176508e-01
1.767395e-01
1.415963e-01
1.119500e-01
8.737016e-02
6.732614e-02
5.123899e-02
3.852359e-02
2.862038e-02
2.101440e-02
1.527553e-02
1.071387e-02
1.000000e+00
1.000000e+00
1.000000e+00
1.000000e+00
1.000001e+00
9.999974e-01
9.999712e-01
9.998657e-01
9.995497e-01
9.987699e-01
9.971016e-01
9.939137e-01
9.883634e-01
9.794335e-01
9.660148e-01
9.470260e-01
9.215524e-01
8.889811e-01
8.491073e-01
8.021934e-01
7.489722e-01
6.905935e-01
6.285251e-01
5.644245e-01
5.000000e-01
4.368803e-01
3.765053e-01
3.200493e-01
2.683777e-01
2.220376e-01
1.812751e-01
1.460743e-01
1.162070e-01
9.128890e-02
7.083316e-02
5.429940e-02
4.113406e-02
3.079794e-02
2.283019e-02
1.634030e-02
1.000000e+00
1.000000e+00
1.000000e+00
1.000000e+00
1.000001e+00
9.999996e-01
9.999879e-01
9.999345e-01
9.997610e-01
9.993053e-01
9.982779e-01
9.962214e-01
9.924871e-01
9.862400e-01
9.765027e-01
9.622372e-01
9.424565e-01
9.163493e-01
8.833972e-01
8.434653e-01
7.968493e-01
7.442733e-01
6.868388e-01
6.259345e-01
5.631197e-01
5.000000e-01
4.381087e-01
3.788084e-01
3.232194e-01
2.721785e-01
2.262284e-01
1.856305e-01
1.503986e-01
1.203431e-01
9.512110e-02
7.428635e-02
5.733500e-02
4.373886e-02
3.303787e-02
2.411151e-02
1.000000e+00
1.000000e+00
1.000000e+00
1.000000e+00
1.000000e+00
1.000000e+00
9.999954e-01
9.999692e-01
9.998762e-01
9.996154e-01
9.989951e-01
9.976940e-01
9.952292e-01
9.909424e-01
9.840130e-01
9.735063e-01
9.584531e-01
9.379536e-01
9.112882e-01
8.780211e-01
8.380760e-01
7.917745e-01
7.398297e-01
6.832977e-01
6.234947e-01
5.618913e-01
5.000000e-01
4.392680e-01
3.809872e-01
3.262275e-01
2.757987e-01
2.302371e-01
1.898168e-01
1.545770e-01
1.243624e-01
9.886781e-02
7.768483e-02
6.033686e-02
4.640410e-02
3.450787e-02
1.000000e+00
1.000000e+00
1.000000e+00
1.000000e+00
1.000000e+00
1.000000e+00
9.999984e-01
9.999861e-01
9.999375e-01
9.997914e-01
9.994241e-01
9.986162e-01
9.970194e-01
9.941317e-01
9.892918e-01
9.816984e-01
9.704610e-01
9.546766e-01
9.335247e-01
9.063684e-01
8.728431e-01
8.329223e-01
7.869475e-01
7.356192e-01
6.799507e-01
6.211916e-01
5.607320e-01
5.000000e-01
4.403645e-01
3.830523e-01
3.290871e-01
2.792520e-01
2.340765e-01
1.938442e-01
1.586167e-01
1.282691e-01
1.025311e-01
8.101945e-02
6.339913e-02
4.800671e-02
1.000000e+00
1.000000e+00
1.000000e+00
1.000000e+00
1.000000e+00
1.000000e+00
9.999996e-01
9.999940e-01
9.999693e-01
9.998892e-01
9.996760e-01
9.991835e-01
9.981674e-01
9.962567e-01
9.929362e-01
9.875469e-01
9.793107e-01
9.673815e-01
9.509188e-01
9.291755e-01
9.015877e-01
8.678536e-01
8.279886e-01
7.823492e-01
7.316223e-01
6.767806e-01
6.190128e-01
5.596355e-01
5.000000e-01
4.414036e-01
3.850135e-01
3.318100e-01
2.825508e-01
2.377579e-01
1.977222e-01
1.625246e-01
1.320682e-01
1.061013e-01
8.441914e-02
6.504882e-02
1.000000e+00
1.000000e+00
1.000000e+00
1.000000e+00
1.000000e+00
1.000000e+00
1.000000e+00
9.999976e-01
9.999854e-01
9.999425e-01
9.998211e-01
9.995263e-01
9.988910e-01
9.976484e-01
9.954095e-01
9.916504e-01
9.857191e-01
9.768629e-01
9.642800e-01
9.471889e-01
9.249095e-01
8.969435e-01
8.630435e-01
8.232605e-01
7.779624e-01
7.278215e-01
6.737725e-01
6.169477e-01
5.585964e-01
5.000000e-01
4.423902e-01
3.868791e-01
3.344067e-01
2.857064e-01
2.412918e-01
2.014595e-01
1.663084e-01
1.357490e-01
1.097488e-01
8.600281e-02
1.000000e+00
1.000000e+00
1.000000e+00
1.000000e+00
1.000000e+00
1.000000e+00
1.000000e+00
9.999991e-01
9.999933e-01
9.999708e-01
9.999030e-01
9.997298e-01
9.993393e-01
9.985448e-01
9.970602e-01
9.944818e-01
9.902819e-01
9.838187e-01
9.743666e-01
9.611671e-01
9.434943e-01
9.207292e-01
8.924322e-01
8.584037e-01
8.187249e-01
7.737716e-01
7.242013e-01
6.709129e-01
6.149865e-01
5.576098e-01
5.000000e-01
4.433285e-01
3.886567e-01
3.368866e-01
2.887288e-01
2.446876e-01
2.050658e-01
1.699550e-01
1.395293e-01
1.111311e-01
1.000000e+00
1.000000e+00
1.000000e+00
1.000000e+00
1.000000e+00
1.000000e+00
1.000000e+00
9.999997e-01
9.999971e-01
9.999856e-01
9.999485e-01
9.998485e-01
9.996126e-01
9.991128e-01
9.981442e-01
9.964042e-01
9.934784e-01
9.888384e-01
9.818553e-01
9.718320e-01
9.580517e-01
9.398407e-01
9.166358e-01
8.880500e-01
8.539257e-01
8.143695e-01
7.697629e-01
7.207480e-01
6.681900e-01
6.131209e-01
5.566715e-01
5.000000e-01
4.442223e-01
3.903529e-01
3.392584e-01
2.916268e-01
2.479561e-01
2.085243e-01
1.737350e-01
1.405607e-01
1.000000e+00
1.000000e+00
1.000000e+00
1.000000e+00
1.000000e+00
1.000000e+00
1.000000e+00
1.000000e+00
9.999988e-01
9.999931e-01
9.999732e-01
9.999165e-01
9.997763e-01
9.994670e-01
9.988451e-01
9.976891e-01
9.956827e-01
9.924040e-01
9.873270e-01
9.798380e-01
9.692682e-01
9.549415e-01
9.362327e-01
9.126298e-01
8.837930e-01
8.496014e-01
8.101832e-01
7.659235e-01
7.174492e-01
6.655933e-01
6.113433e-01
5.557777e-01
5.000000e-01
4.450752e-01
3.919739e-01
3.415294e-01
2.944115e-01
2.510754e-01
2.121624e-01
1.742627e-01
1.000000e+00
1.000000e+00
1.000000e+00
1.000000e+00
1.000000e+00
1.000000e+00
1.000000e+00
1.000000e+00
9.999995e-01
9.999968e-01
9.999864e-01
9.999548e-01
9.998729e-01
9.996845e-01
9.992913e-01
9.985350e-01
9.971799e-01
9.948984e-01
9.912637e-01
9.857549e-01
9.777748e-01
9.666832e-01
9.518428e-01
9.326739e-01
9.087111e-01
8.796569e-01
8.454230e-01
8.061558e-01
7.622421e-01
7.142936e-01
6.631134e-01
6.096471e-01
5.549248e-01
5.000000e-01
4.458900e-01
3.935247e-01
3.437098e-01
2.970545e-01
2.544318e-01
2.120419e-01
1.000000e+00
1.000000e+00
1.000000e+00
1.000000e+00
1.000000e+00
1.000000e+00
1.000000e+00
1.000000e+00
9.999999e-01
9.999986e-01
9.999932e-01
9.999760e-01
9.999290e-01
9.998160e-01
9.995711e-01
9.990837e-01
9.981820e-01
9.966177e-01
9.940542e-01
9.900625e-01
9.841286e-01
9.756730e-01
9.640839e-01
9.487610e-01
9.291668e-01
9.048789e-01
8.756376e-01
8.413833e-01
8.022778e-01
7.587082e-01
7.112712e-01
6.607416e-01
6.080261e-01
5.541100e-01
5.000000e-01
4.466693e-01
3.950142e-01
3.457636e-01
3.000016e-01
2.535382e-01
1.000000e+00
1.000000e+00
1.000000e+00
1.000000e+00
1.000000e+00
1.000000e+00
1.000000e+00
1.000000e+00
1.000000e+00
9.999994e-01
9.999967e-01
9.999875e-01
9.999609e-01
9.998943e-01
9.997440e-01
9.994344e-01
9.988430e-01
9.977859e-01
9.960038e-01
9.931532e-01
9.888052e-01
9.824542e-01
9.735393e-01
9.614764e-01
9.457006e-01
9.257136e-01
9.011322e-01
8.717309e-01
8.374754e-01
7.985405e-01
7.553124e-01
7.083732e-01
6.584706e-01
6.064753e-01
5.533307e-01
5.000000e-01
4.474206e-01
3.963986e-01
3.481956e-01
2.982412e-01
1.000000e+00
1.000000e+00
1.000000e+00
1.000000e+00
1.000000e+00
1.000000e+00
1.000000e+00
1.000000e+00
1.000000e+00
9.999998e-01
9.999985e-01
9.999936e-01
9.999789e-01
9.999402e-01
9.998494e-01
9.996555e-01
9.992731e-01
9.985686e-01
9.973470e-01
9.953398e-01
9.921988e-01
9.874965e-01
9.807375e-01
9.713796e-01
9.588659e-01
9.426650e-01
9.223152e-01
8.974689e-01
8.679318e-01
8.336916e-01
7.949342e-01
7.520439e-01
7.055885e-01
6.562902e-01
6.049858e-01
5.525794e-01
5.000000e-01
4.480848e-01
3.982301e-01
3.455044e-01
1.000000e+00
1.000000e+00
1.000000e+00
1.000000e+00
1.000000e+00
1.000000e+00
1.000000e+00
1.000000e+00
1.000000e+00
9.999999e-01
9.999993e-01
9.999968e-01
9.999888e-01
9.999666e-01
9.999126e-01
9.997929e-01
9.995490e-01
9.990860e-01
9.982600e-01
9.968660e-01
9.946281e-01
9.911948e-01
9.861422e-01
9.789856e-01
9.692021e-01
9.562611e-01
9.396631e-01
9.189806e-01
8.938987e-01
8.642510e-01
8.300450e-01
7.914757e-01
7.489246e-01
7.029455e-01
6.542364e-01
6.036014e-01
5.519152e-01
5.000000e-01
4.493377e-01
3.946673e-01
1.000000e+00
1.000000e+00
1.000000e+00
1.000000e+00
1.000000e+00