# vtk DataFile Version 3.0
CD_1JC
ASCII
DATASET STRUCTURED_GRID
DIMENSIONS 81 81 1
POINTS 6561 double
0.000000e+00 0.000000e+00 0.0
1.250000e-02 0.000000e+00 0.0
2.500000e-02 0.000000e+00 0.0
3.750000e-02 0.000000e+00 0.0
5.000000e-02 0.000000e+00 0.0
6.250000e-02 0.000000e+00 0.0
7.500000e-02 0.000000e+00 0.0
8.750000e-02 0.000000e+00 0.0
1.000000e-01 0.000000e+00 0.0
1.125000e-01 0.000000e+00 0.0
1.250000e-01 0.000000e+00 0.0
1.375000e-01 0.000000e+00 0.0
1.500000e-01 0.000000e+00 0.0
1.625000e-01 0.000000e+00 0.0
1.750000e-01 0.000000e+00 0.0
1.875000e-01 0.000000e+00 0.0
2.000000e-01 0.000000e+00 0.0
2.125000e-01 0.000000e+00 0.0
2.250000e-01 0.000000e+00 0.0
2.375000e-01 0.000000e+00 0.0
2.500000e-01 0.000000e+00 0.0
2.625000e-01 0.000000e+00 0.0
2.750000e-01 0.000000e+00 0.0
2.875000e-01 0.000000e+00 0.0
3.000000e-01 0.000000e+00 0.0
3.125000e-01 0.000000e+00 0.0
3.250000e-01 0.000000e+00 0.0
3.375000e-01 0.000000e+00 0.0
3.500000e-01 0.000000e+00 0.0
3.625000e-01 0.000000e+00 0.0
3.750000e-01 0.000000e+00 0.0
3.875000e-01 0.000000e+00 0.0
4.000000e-01 0.000000e+00 0.0
4.125000e-01 0.000000e+00 0.0
4.250000e-01 0.000000e+00 0.0
4.375000e-01 0.000000e+00 0.0
4.500000e-01 0.000000e+00 0.0
4.625000e-01 0.000000e+00 0.0
4.750000e-01 0.000000e+00 0.0
4.875000e-01 0.000000e+00 0.0
5.000000e-01 0.000000e+00 0.0
5.125000e-01 0.000000e+00 0.0
5.250000e-01 0.000000e+00 0.0
5.375000e-01 0.000000e+00 0.0
5.500000e-01 0.000000e+00 0.0
5.625000e-01 0.000000e+00 0.0
5.750000e-01 0.000000e+00 0.0
5.875000e-01 0.000000e+00 0.0
6.000000e-01 0.000000e+00 0.0
6.125000e-01 0.000000e+00 0.0
6.250000e-01 0.000000e+00 0.0
6.375000e-01 0.000000e+00 0.0
6.500000e-01 0.000000e+00 0.0
6.625000e-01 0.000000e+00 0.0
6.750000e-01 0.000000e+00 0.0
6.875000e-01 0.000000e+00 0.0
7.000000e-01 0.000000e+00 0.0
7.125000e-01 0.000000e+00 0.0
7.250000e-01 0.000000e+00 0.0
7.375000e-01 0.000000e+00 0.0
7.500000e-01 0.000000e+00 0.0
7.625000e-01 0.000000e+00 0.0
7.750000e-01 0.000000e+00 0.0
7.875000e-01 0.000000e+00 0.0
8.000000e-01 0.000000e+00 0.0
8.125000e-01 0.000000e+00 0.0
8.250000e-01 0.000000e+00 0.0
8.375000e-01 0.000000e+00 0.0
8.500000e-01 0.000000e+00 0.0
8.625000e-01 0.000000e+00 0.0
8.750000e-01 0.000000e+00 0.0
8.875000e-01 0.000000e+00 0.0
9.000000e-01 0.000000e+00 0.0
9.125000e-01 0.000000e+00 0.0
9.250000e-01 0.000000e+00 0.0
9.375000e-01 0.000000e+00 0.0
9.500000e-01 0.000000e+00 0.0
9.625000e-01 0.000000e+00 0.0
9.750000e-01 0.000000e+00 0.0
9.875000e-01 0.000000e+00 0.0
1.000000e+00 0.000000e+00 0.0
0.000000e+00 1.250000e-02 0.0
1.250000e-02 1.250000e-02 0.0
2.500000e-02 1.250000e-02 0.0
3.750000e-02 1.250000e-02 0.0
5.000000e-02 1.250000e-02 0.0
6.250000e-02 1.250000e-02 0.0
7.500000e-02 1.250000e-02 0.0
8.750000e-02 1.250000e-02 0.0
1.000000e-01 1.250000e-02 0.0
1.125000e-01 1.250000e-02 0.0
1.250000e-01 1.250000e-02 0.0
1.375000e-01 1.250000e-02 0.0
1.500000e-01 1.250000e-02 0.0
1.625000e-01 1.250000e-02 0.0
1.750000e-01 1.250000e-02 0.0
1.875000e-01 1.250000e-02 0.0
2.000000e-01 1.250000e-02 0.0
2.125000e-01 1.250000e-02 0.0
2.250000e-01 1.250000e-02 0.0
2.375000e-01 1.250000e-02 0.0
2.500000e-01 1.250000e-02 0.0
2.625000e-01 1.250000e-02 0.0
2.750000e-01 1.250000e-02 0.0
2.875000e-01 1.250000e-02 0.0
3.000000e-01 1.250000e-02 0.0
3.125000e-01 1.250000e-02 0.0
3.250000e-01 1.250000e-02 0.0
3.375000e-01 1.250000e-02 0.0
3.500000e-01 1.250000e-02 0.0
3.625000e-01 1.250000e-02 0.0
3.750000e-01 1.250000e-02 0.0
3.875000e-01 1.250000e-02 0.0
4.000000e-01 1.250000e-02 0.0
4.125000e-01 1.250000e-02 0.0
4.250000e-01 1.250000e-02 0.0
4.375000e-01 1.250000e-02 0.0
4.500000e-01 1.250000e-02 0.0
4.625000e-01 1.250000e-02 0.0
4.750000e-01 1.250000e-02 0.0
4.875000e-01 1.250000e-02 0.0
5.000000e-01 1.250000e-02 0.0
5.125000e-01 1.250000e-02 0.0
5.250000e-01 1.250000e-02 0.0
5.375000e-01 1.250000e-02 0.0
5.500000e-01 1.250000e-02 0.0
5.625000e-01 1.250000e-02 0.0
5.750000e-01 1.250000e-02 0.0
5.875000e-01 1.250000e-02 0.0
6.000000e-01 1.250000e-02 0.0
6.125000e-01 1.250000e-02 0.0
6.250000e-01 1.250000e-02 0.0
6.375000e-01 1.250000e-02 0.0
6.500000e-01 1.250000e-02 0.0
6.625000e-01 1.250000e-02 0.0
6.750000e-01 1.250000e-02 0.0
6.875000e-01 1.250000e-02 0.0
7.000000e-01 1.250000e-02 0.0
7.125000e-01 1.250000e-02 0.0
7.250000e-01 1.250000e-02 0.0
7.375000e-01 1.250000e-02 0.0
7.500000e-01 1.250000e-02 0.0
7.625000e-01 1.250000e-02 0.0
7.750000e-01 1.250000e-02 0.0
7.875000e-01 1.250000e-02 0.0
8.000000e-01 1.250000e-02 0.0
8.125000e-01 1.250000e-02 0.0
8.250000e-01 1.250000e-02 0.0
8.375000e-01 1.250000e-02 0.0
8.500000e-01 1.250000e-02 0.0
8.625000e-01 1.250000e-02 0.0
8.750000e-01 1.250000e-02 0.0
8.875000e-01 1.250000e-02 0.0
9.000000e-01 1.250000e-02 0.0
9.125000e-01 1.250000e-02 0.0
9.250000e-01 1.250000e-02 0.0
9.375000e-01 1.250000e-02 0.0
9.500000e-01 1.250000e-02 0.0
9.625000e-01 1.250000e-02 0.0
9.750000e-01 1.250000e-02 0.0
9.875000e-01 1.250000e-02 0.0
1.000000e+00 1.250000e-02 0.0
0.000000e+00 2.500000e-02 0.0
1.250000e-02 2.500000e-02 0.0
2.500000e-02 2.500000e-02 0.0
3.750000e-02 2.500000e-02 0.0
5.000000e-02 2.500000e-02 0.0
6.250000e-02 2.500000e-02 0.0
7.500000e-02 2.500000e-02 0.0
8.750000e-02 2.500000e-02 0.0
1.000000e-01 2.500000e-02 0.0
1.125000e-01 2.500000e-02 0.0
1.250000e-01 2.500000e-02 0.0
1.375000e-01 2.500000e-02 0.0
1.500000e-01 2.500000e-02 0.0
1.625000e-01 2.500000e-02 0.0
1.750000e-01 2.500000e-02 0.0
1.875000e-01 2.500000e-02 0.0
2.000000e-01 2.500000e-02 0.0
2.125000e-01 2.500000e-02 0.0
2.250000e-01 2.500000e-02 0.0
2.375000e-01 2.500000e-02 0.0
2.500000e-01 2.500000e-02 0.0
2.625000e-01 2.500000e-02 0.0
2.750000e-01 2.500000e-02 0.0
2.875000e-01 2.500000e-02 0.0
3.000000e-01 2.500000e-02 0.0
3.125000e-01 2.500000e-02 0.0
3.250000e-01 2.500000e-02 0.0
3.375000e-01 2.500000e-02 0.0
3.500000e-01 2.500000e-02 0.0
3.625000e-01 2.500000e-02 0.0
3.750000e-01 2.500000e-02 0.0
3.875000e-01 2.500000e-02 0.0
4.000000e-01 2.500000e-02 0.0
4.125000e-01 2.500000e-02 0.0
4.250000e-01 2.500000e-02 0.0
4.375000e-01 2.500000e-02 0.0
4.500000e-01 2.500000e-02 0.0
4.625000e-01 2.500000e-02 0.0
4.750000e-01 2.500000e-02 0.0
4.875000e-01 2.500000e-02 0.0
5.000000e-01 2.500000e-02 0.0
5.125000e-01 2.500000e-02 0.0
5.250000e-01 2.500000e-02 0.0
5.375000e-01 2.500000e-02 0.0
5.500000e-01 2.500000e-02 0.0
5.625000e-01 2.500000e-02 0.0
5.750000e-01 2.500000e-02 0.0
5.875000e-01 2.500000e-02 0.0
6.000000e-01 2.500000e-02 0.0
6.125000e-01 2.500000e-02 0.0
6.250000e-01 2.500000e-02 0.0
6.375000e-01 2.500000e-02 0.0
6.500000e-01 2.500000e-02 0.0
6.625000e-01 2.500000e-02 0.0
6.750000e-01 2.500000e-02 0.0
6.875000e-01 2.500000e-02 0.0
7.000000e-01 2.500000e-02 0.0
7.125000e-01 2.500000e-02 0.0
7.250000e-01 2.500000e-02 0.0
7.375000e-01 2.500000e-02 0.0
7.500000e-01 2.500000e-02 0.0
7.625000e-01 2.500000e-02 0.0
7.750000e-01 2.500000e-02 0.0
7.875000e-01 2.500000e-02 0.0
8.000000e-01 2.500000e-02 0.0
8.125000e-01 2.500000e-02 0.0
8.250000e-01 2.500000e-02 0.0
8.375000e-01 2.500000e-02 0.0
8.500000e-01 2.500000e-02 0.0
8.625000e-01 2.500000e-02 0.0
8.750000e-01 2.500000e-02 0.0
8.875000e-01 2.500000e-02 0.0
9.000000e-01 2.500000e-02 0.0
9.125000e-01 2.500000e-02 0.0
9.250000e-01 2.500000e-02 0.0
9.375000e-01 2.500000e-02 0.0
9.500000e-01 2.500000e-02 0.0
9.625000e-01 2.500000e-02 0.0
9.750000e-01 2.500000e-02 0.0
9.875000e-01 2.500000e-02 0.0
1.000000e+00 2.500000e-02 0.0
0.000000e+00 3.750000e-02 0.0
1.250000e-02 3.750000e-02 0.0
2.500000e-02 3.750000e-02 0.0
3.750000e-02 3.750000e-02 0.0
5.000000e-02 3.750000e-02 0.0
6.250000e-02 3.750000e-02 0.0
7.500000e-02 3.750000e-02 0.0
8.750000e-02 3.750000e-02 0.0
1.000000e-01 3.750000e-02 0.0
1.125000e-01 3.750000e-02 0.0
1.250000e-01 3.750000e-02 0.0
1.375000e-01 3.750000e-02 0.0
1.500000e-01 3.750000e-02 0.0
1.625000e-01 3.750000e-02 0.0
1.750000e-01 3.750000e-02 0.0
1.875000e-01 3.750000e-02 0.0
2.000000e-01 3.750000e-02 0.0
2.125000e-01 3.750000e-02 0.0
2.250000e-01 3.750000e-02 0.0
2.375000e-01 3.750000e-02 0.0
2.500000e-01 3.750000e-02 0.0
2.625000e-01 3.750000e-02 0.0
2.750000e-01 3.750000e-02 0.0
2.875000e-01 3.750000e-02 0.0
3.000000e-01 3.750000e-02 0.0
3.125000e-01 3.750000e-02 0.0
3.250000e-01 3.750000e-02 0.0
3.375000e-01 3.750000e-02 0.0
3.500000e-01 3.750000e-02 0.0
3.625000e-01 3.750000e-02 0.0
3.750000e-01 3.750000e-02 0.0
3.875000e-01 3.750000e-02 0.0
4.000000e-01 3.750000e-02 0.0
4.125000e-01 3.750000e-02 0.0
4.250000e-01 3.750000e-02 0.0
4.375000e-01 3.750000e-02 0.0
4.500000e-01 3.750000e-02 0.0
4.625000e-01 3.750000e-02 0.0
4.750000e-01 3.750000e-02 0.0
4.875000e-01 3.750000e-02 0.0
5.000000e-01 3.750000e-02 0.0
5.125000e-01 3.750000e-02 0.0
5.250000e-01 3.750000e-02 0.0
5.375000e-01 3.750000e-02 0.0
5.500000e-01 3.750000e-02 0.0
5.625000e-01 3.750000e-02 0.0
5.750000e-01 3.750000e-02 0.0
5.875000e-01 3.750000e-02 0.0
6.000000e-01 3.750000e-02 0.0
6.125000e-01 3.750000e-02 0.0
6.250000e-01 3.750000e-02 0.0
6.375000e-01 3.750000e-02 0.0
6.500000e-01 3.750000e-02 0.0
6.625000e-01 3.750000e-02 0.0
6.750000e-01 3.750000e-02 0.0
6.875000e-01 3.750000e-02 0.0
7.000000e-01 3.750000e-02 0.0
7.125000e-01 3.750000e-02 0.0
7.250000e-01 3.750000e-02 0.0
7.375000e-01 3.750000e-02 0.0
7.500000e-01 3.750000e-02 0.0
7.625000e-01 3.750000e-02 0.0
7.750000e-01 3.750000e-02 0.0
7.875000e-01 3.750000e-02 0.0
8.000000e-01 3.750000e-02 0.0
8.125000e-01 3.750000e-02 0.0
8.250000e-01 3.750000e-02 0.0
8.375000e-01 3.750000e-02 0.0
8.500000e-01 3.750000e-02 0.0
8.625000e-01 3.750000e-02 0.0
8.750000e-01 3.750000e-02 0.0
8.875000e-01 3.750000e-02 0.0
9.000000e-01 3.750000e-02 0.0
9.125000e-01 3.750000e-02 0.0
9.250000e-01 3.750000e-02 0.0
9.375000e-01 3.750000e-02 0.0
9.500000e-01 3.750000e-02 0.0
9.625000e-01 3.750000e-02 0.0
9.750000e-01 3.750000e-02 0.0
9.875000e-01 3.750000e-02 0.0
1.000000e+00 3.750000e-02 0.0
0.000000e+00 5.000000e-02 0.0
1.250000e-02 5.000000e-02 0.0
2.500000e-02 5.000000e-02 0.0
3.750000e-02 5.000000e-02 0.0
5.000000e-02 5.000000e-02 0.0
[...]
CELL_DATA 6400
SCALARS Temperature double 1
LOOKUP_TABLE default
5.000000e-01
1.827718e-01
7.491106e-02
3.462819e-02
1.780859e-02
9.944159e-03
5.886659e-03
3.628197e-03
2.300430e-03
1.488997e-03
9.790601e-04
6.518353e-04
4.384220e-04
2.974087e-04
2.032248e-04
1.397446e-04
9.662428e-05
6.713532e-05
4.684867e-05
3.281935e-05
2.307190e-05
1.627105e-05
1.150811e-05
8.160971e-06
5.801434e-06
4.133352e-06
2.951003e-06
2.110923e-06
1.512698e-06
1.085818e-06
7.806200e-07
5.620278e-07
4.052029e-07
2.925154e-07
2.114240e-07
1.529888e-07
1.108250e-07
8.036445e-08
5.833311e-08
4.238089e-08
3.081833e-08
2.242921e-08
1.633683e-08
1.190844e-08
8.686806e-09
6.341178e-09
4.632030e-09
3.385731e-09
2.476291e-09
1.812210e-09
1.326975e-09
9.721985e-10
7.126500e-10
5.226588e-10
3.835067e-10
2.815352e-10
2.067714e-10
1.519286e-10
1.116794e-10
8.212693e-11
6.041861e-11
4.446550e-11
3.273691e-11
2.411066e-11
1.776367e-11
1.309194e-11
9.652026e-12
7.118230e-12
5.251225e-12
3.875078e-12
2.860407e-12
2.112026e-12
1.559880e-12
1.152393e-12
8.515796e-13
6.294563e-13
4.654254e-13
3.444475e-13
2.562890e-13
1.984236e-13
8.172282e-01
5.000000e-01
2.970263e-01
1.769996e-01
1.071292e-01
6.610518e-02
4.158033e-02
2.661367e-02
1.729527e-02
1.138736e-02
7.581748e-03
5.096513e-03
3.454302e-03
2.358077e-03
1.619857e-03
1.118904e-03
7.766691e-04
5.414759e-04
3.789910e-04
2.662074e-04
1.875903e-04
1.325794e-04
9.395280e-05
6.674464e-05
4.752396e-05
3.390972e-05
2.424293e-05
1.736346e-05
1.245732e-05
8.951624e-06
6.442062e-06
4.642527e-06
3.350074e-06
2.420428e-06
1.750804e-06
1.267836e-06
9.190594e-07
6.668919e-07
4.843698e-07
3.521182e-07
2.561952e-07
1.865553e-07
1.359508e-07
9.914683e-08
7.235767e-08
5.284281e-08
3.861629e-08
2.823754e-08
2.066065e-08
1.512558e-08
1.107952e-08
8.120103e-09
5.954231e-09
4.368226e-09
3.206210e-09
2.354395e-09
1.729657e-09
1.271240e-09
9.347074e-10
6.875410e-10
5.059303e-10
3.724316e-10
2.742591e-10
2.020363e-10
1.488836e-10
1.097512e-10
8.093042e-11
5.969678e-11
4.404763e-11
3.251045e-11
2.400207e-11
1.772541e-11
1.309370e-11
9.674842e-12
7.150533e-12
5.286240e-12
3.909289e-12
2.893581e-12
2.153305e-12
1.667344e-12
9.250889e-01
7.029737e-01
5.000000e-01
3.436971e-01
2.324376e-01
1.562236e-01
1.049452e-01
7.068027e-02
4.780109e-02
3.248490e-02
2.218766e-02
1.522964e-02
1.050309e-02
7.275556e-03
5.060593e-03
3.533363e-03
2.475707e-03
1.740266e-03
1.226957e-03
8.674436e-04
6.148401e-04
4.368287e-04
3.110392e-04
2.219259e-04
1.586462e-04
1.136124e-04
8.149801e-05
5.855289e-05
4.212973e-05
3.035501e-05
2.189975e-05
1.581915e-05
1.144020e-05
8.282537e-06
6.002717e-06
4.354758e-06
3.162210e-06
2.298307e-06
1.671852e-06
1.217146e-06
8.868023e-07
6.465995e-07
4.717960e-07
3.444851e-07
2.516933e-07
1.840120e-07
1.346119e-07
9.853103e-08
7.216147e-08
5.287755e-08
3.876701e-08
2.843611e-08
2.086831e-08
1.532167e-08
1.125434e-08
8.270322e-09
6.080046e-09
4.471647e-09
3.290021e-09
2.421559e-09
1.783000e-09
1.313296e-09
9.676640e-10
7.132346e-10
5.258742e-10
3.878545e-10
2.861472e-10
2.111739e-10
1.558896e-10
1.151110e-10
8.502296e-11
6.281624e-11
4.642169e-11
3.431472e-11
2.537161e-11
1.876399e-11
1.388162e-11
1.027870e-11
7.651804e-12
5.926840e-12
9.653718e-01
8.230004e-01
6.563029e-01
5.000000e-01
3.695297e-01
2.677544e-01
1.915850e-01
1.360334e-01
9.616598e-02
6.783471e-02
4.781658e-02
3.371503e-02
2.379362e-02
1.681362e-02
1.189951e-02
8.435681e-03
5.990465e-03
4.261425e-03
3.036648e-03
2.167513e-03
1.549652e-03
1.109649e-03
7.957726e-04
5.714997e-04
4.109975e-04
2.959588e-04
2.133861e-04
1.540347e-04
1.113179e-04
8.053451e-05
5.832418e-05
4.228091e-05
3.067960e-05
2.228163e-05
1.619641e-05
1.178281e-05
8.578721e-06
6.250648e-06
4.557672e-06
3.325552e-06
2.428147e-06
1.774049e-06
1.296954e-06
9.487287e-07
6.943975e-07
5.085268e-07
3.726065e-07
2.731553e-07
2.003475e-07
1.470163e-07
1.079314e-07
7.927271e-08
5.824881e-08
4.281853e-08
3.148850e-08
2.316553e-08
1.704894e-08
1.255198e-08
9.244465e-09
6.810857e-09
5.019584e-09
3.700627e-09
2.729108e-09
2.013260e-09
1.485624e-09
1.096591e-09
8.096619e-10
5.979742e-10
4.417514e-10
3.264277e-10
2.412719e-10
1.783753e-10
1.319069e-10
9.756709e-11
7.218381e-11
5.341687e-11
3.954107e-11
2.929509e-11
2.182040e-11
1.690981e-11
9.821914e-01
8.928708e-01
7.675624e-01
6.304703e-01
5.000000e-01
3.861979e-01
2.925081e-01
2.183739e-01
1.613198e-01
1.182665e-01
8.623155e-02
6.263310e-02
4.537315e-02
3.281270e-02
2.370411e-02
1.711437e-02
1.235419e-02
8.918719e-03
6.440409e-03
4.652762e-03
3.363107e-03
2.432402e-03
1.760424e-03
1.274973e-03
9.240488e-04
6.701983e-04
4.864375e-04
3.533169e-04
2.568101e-04
1.867948e-04
1.359619e-04
9.902895e-05
7.217603e-05
5.263835e-05
3.841338e-05
2.804956e-05
2.049394e-05
1.498212e-05
1.095878e-05
8.020194e-06
5.872654e-06
4.302331e-06
3.153455e-06
2.312472e-06
1.696551e-06
1.245238e-06
9.143794e-07
6.717134e-07
4.936506e-07
3.629343e-07
2.669342e-07
1.964009e-07
1.445577e-07
1.064370e-07
7.839604e-08
5.776183e-08
4.257252e-08
3.138741e-08
2.314811e-08
1.707679e-08
1.260155e-08
9.301770e-09
6.867960e-09
5.072330e-09
3.747156e-09
2.768904e-09
2.046552e-09
1.513019e-09
1.118844e-09
8.275531e-10
6.122394e-10
4.530470e-10
3.353201e-10
2.482380e-10
1.838093e-10
1.361318e-10
1.008495e-10
7.477490e-11
5.573791e-11
4.322343e-11
9.900558e-01
9.338948e-01
8.437764e-01
7.322456e-01
6.138021e-01
5.000000e-01
3.979866e-01
3.109888e-01
2.394714e-01
1.822751e-01
1.374767e-01
1.029447e-01
7.665180e-02
5.682195e-02
4.197664e-02
3.092664e-02
2.273832e-02
1.669161e-02
1.223834e-02
8.965356e-03
6.563611e-03
4.803259e-03
3.514129e-03
2.570659e-03
1.880450e-03
1.375645e-03
1.006484e-03
7.365243e-04
5.390950e-04
3.946899e-04
2.890485e-04
2.117474e-04
1.551689e-04
1.137458e-04
8.340918e-05
6.118457e-05
4.489738e-05
3.295730e-05
2.420102e-05
1.777731e-05
1.306316e-05
9.602369e-06
7.060815e-06
5.193685e-06
3.821542e-06
2.812817e-06
2.071010e-06
1.525309e-06
1.123741e-06
8.281421e-07
6.104796e-07
4.501555e-07
3.320295e-07
2.449689e-07
1.807852e-07
1.334535e-07
9.853944e-08
7.277810e-08
5.376498e-08
3.972869e-08
2.936383e-08
2.170814e-08
1.605211e-08
1.187241e-08
8.782959e-09
6.498847e-09
4.809757e-09
3.560406e-09
2.636110e-09
1.952151e-09
1.445931e-09
1.071184e-09
7.937096e-10
5.882180e-10
4.360067e-10
3.232428e-10
2.397039e-10
1.779012e-10
1.327347e-10
1.030197e-10
9.941133e-01
9.584197e-01
8.950548e-01
8.084150e-01
7.074919e-01
6.020134e-01
5.000000e-01
4.068470e-01
3.254162e-01
2.565937e-01
1.999448e-01
1.542825e-01
1.180866e-01
8.977804e-02
6.787792e-02
5.108475e-02
3.830028e-02
2.862499e-02
2.133818e-02
1.587209e-02
1.178525e-02
8.737913e-03
6.470755e-03
4.787137e-03
3.538756e-03
2.614248e-03
1.930283e-03
1.424693e-03
1.051207e-03
7.754549e-04
5.719456e-04
4.218011e-04
3.110545e-04
2.293816e-04
1.691567e-04
1.247502e-04
9.200789e-05
6.786567e-05
5.006383e-05
3.693629e-05
2.725481e-05
2.011399e-05
1.484643e-05
1.096019e-05
8.092603e-06
5.976333e-06
4.414273e-06
3.261088e-06
2.409604e-06
1.780776e-06
1.316296e-06
9.731471e-07
7.195884e-07
5.321944e-07
3.936738e-07
2.912611e-07
2.155298e-07
1.595184e-07
1.180842e-07
8.742782e-08
6.474164e-08
4.795048e-08
3.552030e-08
2.631683e-08
1.950128e-08
1.445320e-08
1.071360e-08
7.942856e-09
5.889608e-09
4.367810e-09
3.239721e-09
2.403351e-09
1.783165e-09
1.323212e-09
9.820441e-10
7.289518e-10
5.412075e-10
4.021365e-10
3.003807e-10
2.333721e-10
9.963718e-01
9.733863e-01
9.293197e-01
8.639666e-01
7.816261e-01
6.890112e-01
5.931530e-01
5.000000e-01
4.137996e-01
3.370588e-01
2.708236e-01
2.150719e-01
1.690967e-01
1.318177e-01
1.020094e-01
7.845061e-02
6.001139e-02
4.569683e-02
3.466070e-02
2.620169e-02
1.975005e-02
1.485012e-02
1.114207e-02
8.344581e-03
6.239609e-03
4.659290e-03
3.475155e-03
2.589356e-03
1.927676e-03
1.434018e-03
1.066104e-03
7.921545e-04
5.883291e-04
4.367791e-04
3.241614e-04
2.405150e-04
1.784124e-04
1.323208e-04
9.812224e-05
7.275399e-05
5.393970e-05
3.998834e-05
2.964429e-05
2.197556e-05
1.629060e-05
1.207646e-05
8.952671e-06
6.637149e-06
4.920743e-06
3.648413e-06
2.705234e-06
2.006025e-06
1.487650e-06
1.103318e-06
8.183483e-07
6.070363e-07
4.503308e-07
3.341108e-07
2.479089e-07
1.839660e-07
1.365299e-07
1.013358e-07
7.522177e-08
5.584320e-08
4.146134e-08
3.078667e-08
2.286277e-08
1.698015e-08
1.261249e-08
9.369291e-09
6.960798e-09
5.171990e-09
3.843283e-09
2.856229e-09
2.122902e-09
1.578035e-09
1.173235e-09
8.729383e-10
6.529135e-10
5.078617e-10
9.976996e-01
9.827047e-01
9.521989e-01
9.038340e-01
8.386802e-01
7.605286e-01
6.745838e-01
5.862004e-01
5.000000e-01
4.194330e-01
3.466970e-01
2.828779e-01
2.281933e-01
1.822551e-01
1.443026e-01
1.133870e-01
8.850415e-02
6.868117e-02
5.302742e-02
4.075922e-02
3.120698e-02
2.381141e-02
1.811366e-02
1.374270e-02
1.040207e-02
7.857230e-03
5.924145e-03
4.459442e-03
3.352085e-03
2.516518e-03
1.887116e-03
1.413728e-03
1.058159e-03
7.914024e-04
5.914844e-04
4.417973e-04
3.298125e-04
2.460949e-04
1.835497e-04
1.368492e-04
1.019970e-04
7.599874e-05
5.661285e-05
4.216257e-05
3.139463e-05
2.337281e-05
1.739818e-05
1.294922e-05
9.636920e-06
7.171257e-06
5.336069e-06
3.970295e-06
2.953961e-06
2.197720e-06
1.635046e-06
1.216415e-06
9.049648e-07
6.732596e-07
5.008845e-07
3.726487e-07
2.772495e-07
2.062784e-07
1.534794e-07
1.141988e-07
8.497485e-08
6.323209e-08
4.705485e-08
3.501807e-08
2.606165e-08
1.939701e-08
1.443747e-08
1.074663e-08
7.999788e-09
5.955395e-09
4.433733e-09
3.301110e-09
2.458183e-09
1.831818e-09
1.372166e-09
1.068759e-09
9.985110e-01
9.886126e-01
9.675151e-01
9.321653e-01
8.817335e-01
8.177249e-01
7.434063e-01
6.629412e-01
5.805670e-01
5.000000e-01
4.241118e-01
3.548388e-01
2.932507e-01
2.397044e-01
1.940274e-01
1.556933e-01
1.239701e-01
9.803415e-02
7.705181e-02
6.023188e-02
4.685622e-02
3.629395e-02
2.800462e-02
2.153437e-02
1.650821e-02
1.262040e-02
9.624433e-03
7.323465e-03
5.561540e-03
4.215970e-03
3.190814e-03
2.411438e-03
1.820049e-03
1.372075e-03
1.033260e-03
7.773615e-04
5.843298e-04
4.388848e-04
3.294071e-04
2.470782e-04
1.852172e-04
1.387706e-04
1.039213e-04
7.778976e-05
5.820610e-05
4.353706e-05
3.255434e-05
2.433499e-05
1.818605e-05
1.358756e-05
1.014964e-05
7.580109e-06
5.660100e-06
4.225756e-06
3.154449e-06
2.354443e-06
1.757131e-06
1.311224e-06
9.783894e-07
7.299837e-07
5.446098e-07
4.062867e-07
3.030806e-07
2.260817e-07
1.686388e-07
1.257875e-07
9.382260e-08
6.997941e-08
5.219488e-08
3.892983e-08
2.903594e-08
2.165657e-08
1.615273e-08
1.204774e-08
8.986093e-09
6.702661e-09
4.999974e-09
3.732364e-09
2.800513e-09
2.184552e-09
9.990209e-01
9.924183e-01
9.778123e-01
9.521834e-01
9.137685e-01
8.625233e-01
8.000552e-01
7.291764e-01
6.533030e-01
5.758882e-01
5.000000e-01
4.280749e-01
3.618304e-01
3.022939e-01
2.499019e-01
2.046297e-01
1.661243e-01
1.338237e-01
1.070539e-01
8.510271e-02
6.727067e-02
5.290446e-02
4.141523e-02
3.228670e-02
2.507592e-02
1.940955e-02
1.497748e-02
1.152529e-02
8.846407e-03
6.774614e-03
5.177203e-03
3.948937e-03
3.006859e-03
2.285913e-03
1.735321e-03
1.315612e-03
9.962126e-04
7.535239e-04
5.693810e-04
4.298395e-04
3.242205e-04
2.443630e-04
1.840428e-04
1.385211e-04
1.041957e-04
7.833234e-05
5.885855e-05
4.420512e-05
3.318536e-05
2.490268e-05
1.868035e-05
1.400800e-05
1.050100e-05
7.869729e-06
5.896209e-06
4.416510e-06
3.307405e-06
2.476310e-06
1.853699e-06
1.387384e-06
1.038207e-06
7.767951e-07
5.811250e-07
4.346885e-07
3.251150e-07
2.431365e-07
1.818117e-07
1.359425e-07
1.016376e-07
7.598405e-08
5.680179e-08
4.245962e-08
3.173710e-08
2.372128e-08
1.772928e-08
1.325052e-08
9.903707e-09
7.406932e-09
5.567953e-09
4.350494e-09
9.993482e-01
9.949035e-01
9.847704e-01
9.662850e-01
9.373669e-01
8.970553e-01
8.457175e-01
7.849281e-01
7.171221e-01
6.451612e-01
5.719251e-01
5.000000e-01
4.314857e-01
3.679160e-01
3.102655e-01
2.590132e-01
2.142365e-01
1.757121e-01
1.430121e-01
1.155864e-01
9.282733e-02
7.411896e-02
5.886979e-02
4.653392e-02
3.662230e-02
2.870699e-02
2.242058e-02
1.745260e-02
1.354413e-02
1.048171e-02
8.091038e-03
6.231028e-03
4.788306e-03
3.672372e-03
2.811401e-03
2.148687e-03
1.639663e-03
1.249452e-03
9.508569e-04
7.227448e-04
5.487427e-04
4.162007e-04
3.153701e-04
2.387549e-04
1.806036e-04
1.365113e-04
1.031104e-04
7.783060e-05
5.871270e-05
4.426559e-05
3.335572e-05
2.512233e-05
1.891254e-05
1.423160e-05
1.070495e-05
8.049216e-06
6.050230e-06
4.546211e-06
3.415042e-06
2.564603e-06
1.925439e-06
1.445216e-06
1.084517e-06
8.136670e-07
6.103379e-07
4.577337e-07
3.432257e-07
2.573215e-07
1.928885e-07
1.445691e-07
1.083395e-07
8.117926e-08
6.082099e-08
4.556334e-08
3.412990e-08
2.556344e-08
1.914713e-08
1.434969e-08
1.080874e-08
8.460587e-09
9.995616e-01
9.965457e-01
9.894969e-01
9.762064e-01
9.546268e-01
9.233482e-01
8.819134e-01
8.309033e-01
7.718067e-01
7.067493e-01
6.381696e-01
5.685143e-01
5.000000e-01
4.344603e-01
3.732738e-01
3.173590e-01
2.672150e-01
2.229895e-01
1.845569e-01
1.515960e-01
1.236588e-01
1.002281e-01
8.076236e-02
6.472806e-02
5.162157e-02
4.098261e-02
3.240091e-02
2.551816e-02
2.002668e-02
1.566595e-02
1.221810e-02
9.502768e-03
7.372052e-03
5.705617e-03
4.406256e-03
3.395942e-03
2.612393e-03
2.006151e-03
1.538119e-03
1.177518e-03
9.002052e-04
6.873129e-04
5.241373e-04
3.992537e-04
3.038080e-04
2.309543e-04
1.754114e-04
1.331130e-04
1.009341e-04
7.647729e-05
5.790619e-05
4.381618e-05
3.313439e-05
2.504234e-05
1.891636e-05
1.428175e-05
1.077755e-05
8.129535e-06
6.129570e-06
4.619807e-06
3.480627e-06
2.621442e-06
1.973700e-06
1.485554e-06
1.117815e-06
8.408781e-07
6.323893e-07
4.754784e-07
3.574192e-07
2.686159e-07
2.018354e-07
1.516282e-07
1.138896e-07
8.552923e-08
6.422084e-08
4.821438e-08
3.619536e-08
2.718699e-08
2.052292e-08
1.609564e-08
9.997026e-01
9.976419e-01
9.927244e-01
9.831864e-01
9.671873e-01
9.431780e-01
9.102220e-01
8.681823e-01
8.177449e-01
7.602956e-01
6.977061e-01
6.320840e-01
5.655397e-01
5.000000e-01
4.370834e-01
3.780367e-01
3.237228e-01
2.746466e-01
2.310044e-01
1.927447e-01
1.596310e-01
1.313003e-01
1.073130e-01
8.719381e-02
7.046262e-02
5.665652e-02
4.534436e-02
3.613517e-02
2.868200e-02
2.268240e-02
1.787665e-02
1.404459e-02
1.100162e-02
8.594489e-03
6.697045e-03
5.206229e-03
4.038417e-03
3.126167e-03
2.415388e-03
1.862904e-03
1.434415e-03
1.102775e-03
8.465847e-04
6.490322e-04
4.969491e-04
3.800512e-04
2.903281e-04
2.215556e-04
1.689083e-04
1.286530e-04
9.790682e-05
7.444799e-05
5.656669e-05
4.294926e-05
3.258787e-05
2.471033e-05
1.872575e-05
1.418250e-05
1.073577e-05
8.122571e-06
6.142507e-06
4.643027e-06
3.508091e-06
2.649504e-06
2.000285e-06
1.509599e-06
1.138891e-06
8.589369e-07
6.475994e-07
4.881178e-07
3.678091e-07
2.770806e-07
2.086803e-07
1.571282e-07
1.182850e-07
8.902615e-08
6.699704e-08
5.044305e-08
3.816729e-08
2.999604e-08
9.997968e-01
9.983801e-01
9.949394e-01
9.881005e-01
9.762959e-01
9.580234e-01
9.321221e-01
8.979906e-01
8.556974e-01
8.059726e-01
7.500981e-01
6.897345e-01
6.267262e-01
5.629166e-01
5.000000e-01
4.394186e-01
3.823063e-01
3.294729e-01
2.814199e-01
2.383770e-01
2.003490e-01
1.671675e-01
1.385400e-01
1.140935e-01
9.341140e-02
7.606252e-02
6.162248e-02
4.968889e-02
3.989091e-02
3.189447e-02
2.540422e-02
2.016317e-02
1.595067e-02
1.257948e-02
9.892359e-03
7.758416e-03
6.069584e-03
4.737270e-03
3.689321e-03
2.867309e-03
2.224174e-03
1.722191e-03
1.331253e-03
1.027428e-03
7.917648e-04
6.093029e-04
4.682728e-04
3.594404e-04
2.755805e-04
2.110537e-04
1.614685e-04
1.234122e-04
9.423842e-05
7.189847e-05
5.480925e-05
4.174939e-05
3.177801e-05
2.417135e-05
1.837335e-05
1.395740e-05
1.059653e-05
8.040419e-06
6.097648e-06
4.621962e-06
3.501724e-06
2.651791e-06
2.007283e-06
1.518794e-06
1.148733e-06
8.685150e-07
6.564196e-07
4.959514e-07
3.745907e-07
2.828408e-07
2.135015e-07
1.611179e-07
1.215654e-07
9.176119e-08
6.960253e-08
5.482236e-08
9.998603e-01
9.988811e-01
9.964666e-01
9.915643e-01
9.828856e-01
9.690734e-01
9.489153e-01
9.215494e-01
8.866130e-01
8.443067e-01
7.953703e-01
7.409868e-01
6.826410e-01
6.219633e-01
5.605814e-01
5.000000e-01
4.415146e-01
3.861615e-01
3.347009e-01
2.876255e-01
2.451869e-01
2.074332e-01
1.742507e-01
1.454058e-01
1.205827e-01
9.941677e-02
8.152108e-02
6.650744e-02
5.400137e-02
4.365242e-02
3.514036e-02
2.817832e-02
2.251355e-02
1.792642e-02
1.422847e-02
1.125964e-02
8.885345e-03
6.993308e-03
5.490599e-03
4.300815e-03
3.361527e-03
2.622005e-03
2.041241e-03
1.586237e-03
1.230553e-03
9.530892e-04
7.370685e-04
5.691939e-04
4.389605e-04
3.380929e-04
2.600891e-04
1.998538e-04
1.534028e-04
1.176278e-04
9.010846e-05
6.896397e-05
5.273519e-05
4.029210e-05
3.076086e-05
2.346677e-05
1.788961e-05
1.362875e-05
1.037607e-05
7.894881e-06
6.003527e-06
4.562760e-06
3.465934e-06
2.631451e-06
1.996930e-06
1.514721e-06
1.148453e-06
8.703898e-07
6.593897e-07
4.993514e-07
3.780194e-07
2.860729e-07
2.164386e-07
1.638133e-07
1.245812e-07
9.835566e-08
9.999034e-01
9.992233e-01
9.975243e-01
9.940095e-01
9.876458e-01
9.772617e-01
9.616997e-01
9.399886e-01
9.114959e-01
8.760299e-01
8.338757e-01
7.857635e-01
7.327850e-01
6.762772e-01
6.176937e-01
5.584854e-01
5.000000e-01
4.434092e-01
3.896647e-01
3.394807e-01
2.933374e-01
2.515008e-01
2.140518e-01
1.809212e-01
1.519244e-01
1.267950e-01
1.052140e-01
8.683476e-02
7.130273e-02
5.827013e-02
4.740670e-02
3.840662e-02
3.099248e-02
2.491692e-02
1.996261e-02
1.594101e-02
1.269039e-02
1.007335e-02
7.974181e-03
6.296235e-03
4.959328e-03
3.897372e-03
3.056220e-03
2.391737e-03
1.868132e-03
1.456509e-03
1.133635e-03
8.809027e-04
6.834637e-04
5.295063e-04
4.096643e-04
3.165320e-04
2.442693e-04
1.882824e-04
1.449658e-04
1.114964e-04
8.566804e-05
6.575983e-05
5.043208e-05
3.864350e-05
2.958608e-05
2.263377e-05
1.730219e-05
1.321706e-05
1.008957e-05
7.697122e-06
5.868329e-06
4.471397e-06
3.405070e-06
2.591636e-06
1.971503e-06
1.499015e-06
1.139224e-06
8.653971e-07
6.571043e-07
4.987444e-07
3.784322e-07
2.872287e-07
2.190415e-07
1.733560e-07
9.999329e-01
9.994585e-01
9.982597e-01
9.957386e-01
9.910813e-01
9.833084e-01
9.713750e-01
9.543032e-01
9.313188e-01
9.019659e-01
8.661763e-01
8.242879e-01
7.770105e-01
7.253534e-01
6.705271e-01
6.138385e-01
5.565908e-01
5.000000e-01
4.451325e-01
3.928661e-01
3.438724e-01
2.986173e-01
2.573751e-01
2.202523e-01
1.872152e-01
1.581206e-01
1.327446e-01
1.108087e-01
9.200243e-02
7.600235e-02
6.248606e-02
5.114306e-02
4.168213e-02
3.383595e-02
2.736347e-02
2.205067e-02
1.770996e-02
1.417882e-02
1.131793e-02
9.008862e-03
7.151820e-03
5.663310e-03
4.473946e-03
3.526415e-03
2.773643e-03
2.177166e-03
1.705699e-03
1.333909e-03
1.041366e-03
8.116573e-04
6.316402e-04
4.908268e-04
3.808730e-04
2.951585e-04
2.284451e-04
1.765983e-04
1.363623e-04
1.051789e-04
8.104233e-05
6.238287e-05
4.797431e-05
3.686047e-05
2.829695e-05
2.170509e-05
1.663578e-05
1.274086e-05
9.750869e-06
7.457445e-06
5.699698e-06
4.353524e-06
3.323295e-06
2.535401e-06
1.933235e-06
1.473306e-06
1.122230e-06
8.544065e-07
6.502554e-07
4.950000e-07
3.785774e-07
3.003873e-07
9.999532e-01
9.996210e-01
9.987730e-01
9.969634e-01
9.935596e-01
9.877617e-01
9.786618e-01
9.653393e-01
9.469726e-01
9.229482e-01
8.929461e-01
8.569879e-01
8.154431e-01
7.689956e-01
7.185801e-01
6.652991e-01
6.103353e-01
5.548675e-01
5.000000e-01
4.467087e-01
3.958063e-01
3.479254e-01
3.035163e-01
2.628579e-01
2.260754e-01
1.931648e-01
1.640174e-01
1.384459e-01
1.162075e-01
9.702465e-02
8.060236e-02
6.664219e-02
5.485275e-02
4.495741e-02
3.669932e-02
2.984442e-02
2.418275e-02
1.952855e-02
1.571937e-02
1.261466e-02
1.009395e-02
8.054863e-03
6.411043e-03
5.090155e-03
4.031997e-03
3.186749e-03
2.513407e-03
1.978386e-03
1.554302e-03
1.218924e-03
9.542746e-04
7.458672e-04
5.820701e-04
4.535725e-04
3.529444e-04
2.742728e-04
2.128644e-04
1.650034e-04
1.277545e-04
9.880439e-05
7.633339e-05
5.891307e-05
4.542416e-05
3.499120e-05
2.693053e-05
2.070912e-05
1.591199e-05
1.221656e-05
9.372355e-06
7.185176e-06
5.504627e-06
4.214365e-06
3.224497e-06
2.465632e-06
1.884267e-06
1.439192e-06
1.098757e-06
8.389918e-07
6.435916e-07
5.120327e-07
9.999672e-01
9.997338e-01
9.991326e-01
9.978325e-01
9.953472e-01
9.910346e-01
9.841279e-01
9.737983e-01
9.592408e-01
9.397681e-01
9.148973e-01
8.844136e-01
8.484040e-01