# vtk DataFile Version 3.0
CD_1JC
ASCII
DATASET STRUCTURED_GRID
DIMENSIONS 41 41 1
POINTS 1681 double
0.000000e+00 0.000000e+00 0.0
2.500000e-02 0.000000e+00 0.0
5.000000e-02 0.000000e+00 0.0
7.500000e-02 0.000000e+00 0.0
1.000000e-01 0.000000e+00 0.0
1.250000e-01 0.000000e+00 0.0
1.500000e-01 0.000000e+00 0.0
1.750000e-01 0.000000e+00 0.0
2.000000e-01 0.000000e+00 0.0
2.250000e-01 0.000000e+00 0.0
2.500000e-01 0.000000e+00 0.0
2.750000e-01 0.000000e+00 0.0
3.000000e-01 0.000000e+00 0.0
3.250000e-01 0.000000e+00 0.0
3.500000e-01 0.000000e+00 0.0
3.750000e-01 0.000000e+00 0.0
4.000000e-01 0.000000e+00 0.0
4.250000e-01 0.000000e+00 0.0
4.500000e-01 0.000000e+00 0.0
4.750000e-01 0.000000e+00 0.0
5.000000e-01 0.000000e+00 0.0
5.250000e-01 0.000000e+00 0.0
5.500000e-01 0.000000e+00 0.0
5.750000e-01 0.000000e+00 0.0
6.000000e-01 0.000000e+00 0.0
6.250000e-01 0.000000e+00 0.0
6.500000e-01 0.000000e+00 0.0
6.750000e-01 0.000000e+00 0.0
7.000000e-01 0.000000e+00 0.0
7.250000e-01 0.000000e+00 0.0
7.500000e-01 0.000000e+00 0.0
7.750000e-01 0.000000e+00 0.0
8.000000e-01 0.000000e+00 0.0
8.250000e-01 0.000000e+00 0.0
8.500000e-01 0.000000e+00 0.0
8.750000e-01 0.000000e+00 0.0
9.000000e-01 0.000000e+00 0.0
9.250000e-01 0.000000e+00 0.0
9.500000e-01 0.000000e+00 0.0
9.750000e-01 0.000000e+00 0.0
1.000000e+00 0.000000e+00 0.0
0.000000e+00 2.500000e-02 0.0
2.500000e-02 2.500000e-02 0.0
5.000000e-02 2.500000e-02 0.0
7.500000e-02 2.500000e-02 0.0
1.000000e-01 2.500000e-02 0.0
1.250000e-01 2.500000e-02 0.0
1.500000e-01 2.500000e-02 0.0
1.750000e-01 2.500000e-02 0.0
2.000000e-01 2.500000e-02 0.0
2.250000e-01 2.500000e-02 0.0
2.500000e-01 2.500000e-02 0.0
2.750000e-01 2.500000e-02 0.0
3.000000e-01 2.500000e-02 0.0
3.250000e-01 2.500000e-02 0.0
3.500000e-01 2.500000e-02 0.0
3.750000e-01 2.500000e-02 0.0
4.000000e-01 2.500000e-02 0.0
4.250000e-01 2.500000e-02 0.0
4.500000e-01 2.500000e-02 0.0
4.750000e-01 2.500000e-02 0.0
5.000000e-01 2.500000e-02 0.0
5.250000e-01 2.500000e-02 0.0
5.500000e-01 2.500000e-02 0.0
5.750000e-01 2.500000e-02 0.0
6.000000e-01 2.500000e-02 0.0
6.250000e-01 2.500000e-02 0.0
6.500000e-01 2.500000e-02 0.0
6.750000e-01 2.500000e-02 0.0
7.000000e-01 2.500000e-02 0.0
7.250000e-01 2.500000e-02 0.0
7.500000e-01 2.500000e-02 0.0
7.750000e-01 2.500000e-02 0.0
8.000000e-01 2.500000e-02 0.0
8.250000e-01 2.500000e-02 0.0
8.500000e-01 2.500000e-02 0.0
8.750000e-01 2.500000e-02 0.0
9.000000e-01 2.500000e-02 0.0
9.250000e-01 2.500000e-02 0.0
9.500000e-01 2.500000e-02 0.0
9.750000e-01 2.500000e-02 0.0
1.000000e+00 2.500000e-02 0.0
0.000000e+00 5.000000e-02 0.0
2.500000e-02 5.000000e-02 0.0
5.000000e-02 5.000000e-02 0.0
7.500000e-02 5.000000e-02 0.0
1.000000e-01 5.000000e-02 0.0
1.250000e-01 5.000000e-02 0.0
1.500000e-01 5.000000e-02 0.0
1.750000e-01 5.000000e-02 0.0
2.000000e-01 5.000000e-02 0.0
2.250000e-01 5.000000e-02 0.0
2.500000e-01 5.000000e-02 0.0
2.750000e-01 5.000000e-02 0.0
3.000000e-01 5.000000e-02 0.0
3.250000e-01 5.000000e-02 0.0
3.500000e-01 5.000000e-02 0.0
3.750000e-01 5.000000e-02 0.0
4.000000e-01 5.000000e-02 0.0
4.250000e-01 5.000000e-02 0.0
4.500000e-01 5.000000e-02 0.0
4.750000e-01 5.000000e-02 0.0
5.000000e-01 5.000000e-02 0.0
5.250000e-01 5.000000e-02 0.0
5.500000e-01 5.000000e-02 0.0
5.750000e-01 5.000000e-02 0.0
6.000000e-01 5.000000e-02 0.0
6.250000e-01 5.000000e-02 0.0
6.500000e-01 5.000000e-02 0.0
6.750000e-01 5.000000e-02 0.0
7.000000e-01 5.000000e-02 0.0
7.250000e-01 5.000000e-02 0.0
7.500000e-01 5.000000e-02 0.0
7.750000e-01 5.000000e-02 0.0
8.000000e-01 5.000000e-02 0.0
8.250000e-01 5.000000e-02 0.0
8.500000e-01 5.000000e-02 0.0
8.750000e-01 5.000000e-02 0.0
9.000000e-01 5.000000e-02 0.0
9.250000e-01 5.000000e-02 0.0
9.500000e-01 5.000000e-02 0.0
9.750000e-01 5.000000e-02 0.0
1.000000e+00 5.000000e-02 0.0
0.000000e+00 7.500000e-02 0.0
2.500000e-02 7.500000e-02 0.0
5.000000e-02 7.500000e-02 0.0
7.500000e-02 7.500000e-02 0.0
1.000000e-01 7.500000e-02 0.0
1.250000e-01 7.500000e-02 0.0
1.500000e-01 7.500000e-02 0.0
1.750000e-01 7.500000e-02 0.0
2.000000e-01 7.500000e-02 0.0
2.250000e-01 7.500000e-02 0.0
2.500000e-01 7.500000e-02 0.0
2.750000e-01 7.500000e-02 0.0
3.000000e-01 7.500000e-02 0.0
3.250000e-01 7.500000e-02 0.0
3.500000e-01 7.500000e-02 0.0
3.750000e-01 7.500000e-02 0.0
4.000000e-01 7.500000e-02 0.0
4.250000e-01 7.500000e-02 0.0
4.500000e-01 7.500000e-02 0.0
4.750000e-01 7.500000e-02 0.0
5.000000e-01 7.500000e-02 0.0
5.250000e-01 7.500000e-02 0.0
5.500000e-01 7.500000e-02 0.0
5.750000e-01 7.500000e-02 0.0
6.000000e-01 7.500000e-02 0.0
6.250000e-01 7.500000e-02 0.0
6.500000e-01 7.500000e-02 0.0
6.750000e-01 7.500000e-02 0.0
7.000000e-01 7.500000e-02 0.0
7.250000e-01 7.500000e-02 0.0
7.500000e-01 7.500000e-02 0.0
7.750000e-01 7.500000e-02 0.0
8.000000e-01 7.500000e-02 0.0
8.250000e-01 7.500000e-02 0.0
8.500000e-01 7.500000e-02 0.0
8.750000e-01 7.500000e-02 0.0
9.000000e-01 7.500000e-02 0.0
9.250000e-01 7.500000e-02 0.0
9.500000e-01 7.500000e-02 0.0
9.750000e-01 7.500000e-02 0.0
1.000000e+00 7.500000e-02 0.0
0.000000e+00 1.000000e-01 0.0
2.500000e-02 1.000000e-01 0.0
5.000000e-02 1.000000e-01 0.0
7.500000e-02 1.000000e-01 0.0
1.000000e-01 1.000000e-01 0.0
1.250000e-01 1.000000e-01 0.0
1.500000e-01 1.000000e-01 0.0
1.750000e-01 1.000000e-01 0.0
2.000000e-01 1.000000e-01 0.0
2.250000e-01 1.000000e-01 0.0
2.500000e-01 1.000000e-01 0.0
2.750000e-01 1.000000e-01 0.0
3.000000e-01 1.000000e-01 0.0
3.250000e-01 1.000000e-01 0.0
3.500000e-01 1.000000e-01 0.0
3.750000e-01 1.000000e-01 0.0
4.000000e-01 1.000000e-01 0.0
4.250000e-01 1.000000e-01 0.0
4.500000e-01 1.000000e-01 0.0
4.750000e-01 1.000000e-01 0.0
5.000000e-01 1.000000e-01 0.0
5.250000e-01 1.000000e-01 0.0
5.500000e-01 1.000000e-01 0.0
5.750000e-01 1.000000e-01 0.0
6.000000e-01 1.000000e-01 0.0
6.250000e-01 1.000000e-01 0.0
6.500000e-01 1.000000e-01 0.0
6.750000e-01 1.000000e-01 0.0
7.000000e-01 1.000000e-01 0.0
7.250000e-01 1.000000e-01 0.0
7.500000e-01 1.000000e-01 0.0
7.750000e-01 1.000000e-01 0.0
8.000000e-01 1.000000e-01 0.0
8.250000e-01 1.000000e-01 0.0
8.500000e-01 1.000000e-01 0.0
8.750000e-01 1.000000e-01 0.0
9.000000e-01 1.000000e-01 0.0
9.250000e-01 1.000000e-01 0.0
9.500000e-01 1.000000e-01 0.0
9.750000e-01 1.000000e-01 0.0
1.000000e+00 1.000000e-01 0.0
0.000000e+00 1.250000e-01 0.0
2.500000e-02 1.250000e-01 0.0
5.000000e-02 1.250000e-01 0.0
7.500000e-02 1.250000e-01 0.0
1.000000e-01 1.250000e-01 0.0
1.250000e-01 1.250000e-01 0.0
1.500000e-01 1.250000e-01 0.0
1.750000e-01 1.250000e-01 0.0
2.000000e-01 1.250000e-01 0.0
2.250000e-01 1.250000e-01 0.0
2.500000e-01 1.250000e-01 0.0
2.750000e-01 1.250000e-01 0.0
3.000000e-01 1.250000e-01 0.0
3.250000e-01 1.250000e-01 0.0
3.500000e-01 1.250000e-01 0.0
3.750000e-01 1.250000e-01 0.0
4.000000e-01 1.250000e-01 0.0
4.250000e-01 1.250000e-01 0.0
4.500000e-01 1.250000e-01 0.0
4.750000e-01 1.250000e-01 0.0
5.000000e-01 1.250000e-01 0.0
5.250000e-01 1.250000e-01 0.0
5.500000e-01 1.250000e-01 0.0
5.750000e-01 1.250000e-01 0.0
6.000000e-01 1.250000e-01 0.0
6.250000e-01 1.250000e-01 0.0
6.500000e-01 1.250000e-01 0.0
6.750000e-01 1.250000e-01 0.0
7.000000e-01 1.250000e-01 0.0
7.250000e-01 1.250000e-01 0.0
7.500000e-01 1.250000e-01 0.0
7.750000e-01 1.250000e-01 0.0
8.000000e-01 1.250000e-01 0.0
8.250000e-01 1.250000e-01 0.0
8.500000e-01 1.250000e-01 0.0
8.750000e-01 1.250000e-01 0.0
9.000000e-01 1.250000e-01 0.0
9.250000e-01 1.250000e-01 0.0
9.500000e-01 1.250000e-01 0.0
9.750000e-01 1.250000e-01 0.0
1.000000e+00 1.250000e-01 0.0
0.000000e+00 1.500000e-01 0.0
2.500000e-02 1.500000e-01 0.0
5.000000e-02 1.500000e-01 0.0
7.500000e-02 1.500000e-01 0.0
1.000000e-01 1.500000e-01 0.0
1.250000e-01 1.500000e-01 0.0
1.500000e-01 1.500000e-01 0.0
1.750000e-01 1.500000e-01 0.0
2.000000e-01 1.500000e-01 0.0
2.250000e-01 1.500000e-01 0.0
2.500000e-01 1.500000e-01 0.0
2.750000e-01 1.500000e-01 0.0
3.000000e-01 1.500000e-01 0.0
3.250000e-01 1.500000e-01 0.0
3.500000e-01 1.500000e-01 0.0
3.750000e-01 1.500000e-01 0.0
4.000000e-01 1.500000e-01 0.0
4.250000e-01 1.500000e-01 0.0
4.500000e-01 1.500000e-01 0.0
4.750000e-01 1.500000e-01 0.0
5.000000e-01 1.500000e-01 0.0
5.250000e-01 1.500000e-01 0.0
5.500000e-01 1.500000e-01 0.0
5.750000e-01 1.500000e-01 0.0
6.000000e-01 1.500000e-01 0.0
6.250000e-01 1.500000e-01 0.0
6.500000e-01 1.500000e-01 0.0
6.750000e-01 1.500000e-01 0.0
7.000000e-01 1.500000e-01 0.0
7.250000e-01 1.500000e-01 0.0
7.500000e-01 1.500000e-01 0.0
7.750000e-01 1.500000e-01 0.0
8.000000e-01 1.500000e-01 0.0
8.250000e-01 1.500000e-01 0.0
8.500000e-01 1.500000e-01 0.0
8.750000e-01 1.500000e-01 0.0
9.000000e-01 1.500000e-01 0.0
9.250000e-01 1.500000e-01 0.0
9.500000e-01 1.500000e-01 0.0
9.750000e-01 1.500000e-01 0.0
1.000000e+00 1.500000e-01 0.0
0.000000e+00 1.750000e-01 0.0
2.500000e-02 1.750000e-01 0.0
5.000000e-02 1.750000e-01 0.0
7.500000e-02 1.750000e-01 0.0
1.000000e-01 1.750000e-01 0.0
1.250000e-01 1.750000e-01 0.0
1.500000e-01 1.750000e-01 0.0
1.750000e-01 1.750000e-01 0.0
2.000000e-01 1.750000e-01 0.0
2.250000e-01 1.750000e-01 0.0
2.500000e-01 1.750000e-01 0.0
2.750000e-01 1.750000e-01 0.0
3.000000e-01 1.750000e-01 0.0
3.250000e-01 1.750000e-01 0.0
3.500000e-01 1.750000e-01 0.0
3.750000e-01 1.750000e-01 0.0
4.000000e-01 1.750000e-01 0.0
4.250000e-01 1.750000e-01 0.0
4.500000e-01 1.750000e-01 0.0
4.750000e-01 1.750000e-01 0.0
5.000000e-01 1.750000e-01 0.0
5.250000e-01 1.750000e-01 0.0
5.500000e-01 1.750000e-01 0.0
5.750000e-01 1.750000e-01 0.0
6.000000e-01 1.750000e-01 0.0
6.250000e-01 1.750000e-01 0.0
6.500000e-01 1.750000e-01 0.0
6.750000e-01 1.750000e-01 0.0
7.000000e-01 1.750000e-01 0.0
7.250000e-01 1.750000e-01 0.0
7.500000e-01 1.750000e-01 0.0
7.750000e-01 1.750000e-01 0.0
8.000000e-01 1.750000e-01 0.0
8.250000e-01 1.750000e-01 0.0
8.500000e-01 1.750000e-01 0.0
8.750000e-01 1.750000e-01 0.0
9.000000e-01 1.750000e-01 0.0
9.250000e-01 1.750000e-01 0.0
9.500000e-01 1.750000e-01 0.0
9.750000e-01 1.750000e-01 0.0
1.000000e+00 1.750000e-01 0.0
0.000000e+00 2.000000e-01 0.0
[...]
CELL_DATA 1600
SCALARS Temperature double 1
LOOKUP_TABLE default
5.000000e-01
7.676196e-02
-2.985515e-02
-2.114157e-02
-2.853696e-04
5.467478e-03
2.211935e-03
-8.530852e-04
-1.124289e-03
-1.898325e-04
3.350450e-04
2.286524e-04
-2.518738e-05
-1.048399e-04
-4.035758e-05
2.431467e-05
2.921364e-05
4.049045e-06
-1.071947e-05
-7.192246e-06
1.117700e-06
3.793032e-06
1.437722e-06
-9.840504e-07
-1.165141e-06
-1.510085e-07
4.598484e-07
3.094937e-07
-5.274459e-08
-1.722625e-07
-6.564904e-08
4.671790e-08
5.578739e-08
7.299758e-09
-2.283607e-08
-1.549365e-08
3.032017e-09
8.718660e-09
2.200937e-09
-1.355254e-09
9.232380e-01
5.000000e-01
1.566852e-01
-2.590030e-03
-2.985159e-02
-1.086701e-02
3.905441e-03
5.019081e-03
8.992586e-04
-1.365986e-03
-9.613508e-04
7.055204e-05
4.115863e-04
1.703286e-04
-8.597381e-05
-1.135906e-04
-1.996137e-05
3.885256e-05
2.825756e-05
-2.756525e-06
-1.393675e-05
-5.897818e-06
3.248769e-06
4.350394e-06
7.684227e-07
-1.597836e-06
-1.186352e-06
1.214156e-07
6.160298e-07
2.663139e-07
-1.488963e-07
-2.038484e-07
-3.704047e-08
7.674308e-08
5.867654e-08
-6.218770e-09
-3.193965e-08
-1.264925e-08
7.910725e-09
6.168785e-09
1.029855e+00
8.433148e-01
5.000000e-01
1.898689e-01
1.787470e-02
-2.875043e-02
-1.653780e-02
9.381750e-04
5.625348e-03
2.269281e-03
-9.464046e-04
-1.296250e-03
-2.602349e-04
3.868227e-04
2.960691e-04
-1.291135e-05
-1.309606e-04
-6.045117e-05
2.595360e-05
3.962441e-05
8.821519e-06
-1.310520e-05
-1.071612e-05
3.770299e-07
5.069795e-06
2.467030e-06
-1.044625e-06
-1.687643e-06
-4.000651e-07
5.771094e-07
4.909726e-07
-1.210035e-08
-2.378066e-07
-1.203839e-07
4.912516e-08
8.504781e-08
2.027758e-08
-3.061539e-08
-2.081380e-08
-2.261740e-12
1.021142e+00
1.002590e+00
8.101311e-01
5.000000e-01
2.103795e-01
3.476437e-02
-2.435176e-02
-1.947364e-02
-2.068937e-03
5.157210e-03
3.160831e-03
-3.170700e-04
-1.334825e-03
-5.361583e-04
2.631012e-04
3.496655e-04
6.741292e-05
-1.130539e-04
-8.644436e-05
4.627426e-06
4.019193e-05
1.870659e-05
-8.220272e-06
-1.267363e-05
-2.885814e-06
4.262435e-06
3.554456e-06
-9.665740e-08
-1.696051e-06
-8.485748e-07
3.437204e-07
5.791344e-07
1.451658e-07
-1.962302e-07
-1.748354e-07
8.941195e-10
8.584720e-08
4.060823e-08
-1.923092e-08
-1.680264e-08
1.000285e+00
1.029852e+00
9.821253e-01
7.896205e-01
5.000000e-01
2.254766e-01
4.934023e-02
-1.864313e-02
-2.069427e-02
-4.719456e-03
4.160769e-03
3.633966e-03
3.227395e-04
-1.189483e-03
-7.230227e-04
1.046655e-04
3.463465e-04
1.339400e-04
-7.680811e-05
-9.676418e-05
-1.689861e-05
3.351101e-05
2.491294e-05
-1.913148e-06
-1.218485e-05
-5.528486e-06
2.638069e-06
3.921194e-06
8.552689e-07
-1.362177e-06
-1.118694e-06
4.244732e-08
5.463400e-07
2.718098e-07
-1.130114e-07
-1.913095e-07
-4.516933e-08
6.970241e-08
4.710136e-08
2.120969e-10
9.945325e-01
1.010867e+00
1.028750e+00
9.652356e-01
7.745234e-01
5.000000e-01
2.375844e-01
6.223962e-02
-1.239670e-02
-2.075838e-02
-6.910880e-03
2.925442e-03
3.776218e-03
8.862210e-04
-9.406716e-04
-8.210408e-04
-5.240325e-05
3.040853e-04
1.792358e-04
-3.417811e-05
-9.404418e-05
-3.444645e-05
2.293687e-05
2.721811e-05
4.133146e-06
-1.001547e-05
-7.156210e-06
7.643333e-07
3.676915e-06
1.600350e-06
-8.486287e-07
-1.194427e-06
-2.414297e-07
4.295959e-07
3.444611e-07
-2.027835e-08
-1.778905e-07
-7.675798e-08
4.222352e-08
3.469287e-08
9.977881e-01
9.960946e-01
1.016538e+00
1.024352e+00
9.506598e-01
7.624156e-01
5.000000e-01
2.477661e-01
7.384090e-02
-5.961698e-03
-2.000581e-02
-8.640575e-03
1.613394e-03
3.669022e-03
1.339812e-03
-6.434157e-04
-8.431079e-04
-1.892875e-04
2.386388e-04
2.027467e-04
7.197650e-06
-8.201636e-05
-4.638768e-05
1.107973e-05
2.622566e-05
9.002133e-06
-6.935403e-06
-7.740358e-06
-9.779555e-07
3.009190e-06
2.054751e-06
-2.897193e-07
-1.106626e-06
-4.586814e-07
2.720771e-07
3.648078e-07
6.204485e-08
-1.426678e-07
-8.361721e-08
3.145101e-09
1.000853e+00
9.949809e-01
9.990618e-01
1.019474e+00
1.018643e+00
9.377604e-01
7.522339e-01
5.000000e-01
2.565811e-01
8.439371e-02
4.878312e-04
-1.865885e-02
-9.940535e-03
3.183377e-04
3.380240e-03
1.675897e-03
-3.342885e-04
-8.055652e-04
-2.975511e-04
1.623009e-04
2.071201e-04
4.292747e-05
-6.429925e-05
-5.258309e-05
-2.656380e-07
2.283320e-05
1.231947e-05
-3.573978e-06
-7.438935e-06
-2.370642e-06
2.112018e-06
2.217537e-06
2.206301e-07
-9.071451e-07
-5.933668e-07
1.060145e-07
3.402956e-07
1.155884e-07
-9.274937e-08
-6.292086e-08
1.001124e+00
9.991007e-01
9.943747e-01
1.002069e+00
1.020694e+00
1.012397e+00
9.261591e-01
7.434189e-01
5.000000e-01
2.643633e-01
9.407495e-02
6.859956e-03
-1.687064e-02
-1.085318e-02
-9.051092e-04
2.964162e-03
1.899461e-03
-3.688505e-05
-7.243271e-04
-3.748647e-04
8.400718e-05
1.962289e-04
7.088619e-05
-4.391976e-05
-5.368208e-05
-1.000533e-05
1.795147e-05
1.405743e-05
-3.854443e-07
-6.487873e-06
-3.323307e-06
1.147146e-06
2.134255e-06
6.292480e-07
-6.447877e-07
-6.453119e-07
-3.656963e-08
2.848523e-07
1.332656e-07
-1.931233e-08
1.000190e+00
1.001366e+00
9.977307e-01
9.948428e-01
1.004719e+00
1.020758e+00
1.005962e+00
9.156063e-01
7.356367e-01
5.000000e-01
2.713305e-01
1.030165e-01
1.310489e-02
-1.475083e-02
-1.142192e-02
-2.025637e-03
2.463445e-03
2.021296e-03
2.342056e-04
-6.133892e-04
-4.223661e-04
9.870546e-06
1.741374e-04
9.044475e-05
-2.319274e-05
-5.068543e-05
-1.758499e-05
1.237382e-05
1.439140e-05
2.344984e-06
-5.128041e-06
-3.830935e-06
2.340984e-07
1.866992e-06
9.116029e-07
-3.710193e-07
-6.304317e-07
-1.393611e-07
1.982621e-07
1.087804e-07
9.996650e-01
1.000961e+00
1.000946e+00
9.968392e-01
9.958392e-01
1.006911e+00
1.020006e+00
9.995122e-01
9.059250e-01
7.286695e-01
5.000000e-01
2.776346e-01
1.113204e-01
1.919596e-02
-1.238024e-02
-1.168755e-02
-3.026265e-03
1.911306e-03
2.054455e-03
4.705974e-04
-4.844092e-04
-4.430360e-04
-5.621269e-05
1.445980e-04
1.019088e-04
-3.756634e-06
-4.468404e-05
-2.283651e-05
6.722260e-06
1.359002e-05
4.465444e-06
-3.575100e-06
-3.940664e-06
-5.477837e-07
1.488554e-06
1.072797e-06
-1.193413e-07
-5.550833e-07
-1.842848e-07
6.455649e-08
9.997713e-01
9.999294e-01
1.001296e+00
1.000317e+00
9.963660e-01
9.970746e-01
1.008641e+00
1.018659e+00
9.931400e-01
8.969835e-01
7.223653e-01
5.000000e-01
2.833868e-01
1.190676e-01
2.511977e-02
-9.819745e-03
-1.168699e-02
-3.899003e-03
1.333453e-03
2.012409e-03
6.681458e-04
-3.467548e-04
-4.407092e-04
-1.120182e-04
1.108291e-04
1.061223e-04
1.332530e-05
-3.670865e-05
-2.584202e-05
1.452044e-06
1.195558e-05
5.929488e-06
-2.003436e-06
-3.731733e-06
-1.163364e-06
1.058389e-06
1.115423e-06
7.402756e-08
-4.195509e-07
-1.758018e-07
1.000025e+00
9.995884e-01
1.000260e+00
1.001335e+00
9.996773e-01
9.962238e-01
9.983866e-01
1.009941e+00
1.016871e+00
9.868951e-01
8.886796e-01
7.166132e-01
5.000000e-01
2.886713e-01
1.263242e-01
3.087081e-02
-7.116056e-03
-1.145308e-02
-4.641559e-03
7.496843e-04
1.908095e-03
8.255788e-04
-2.077401e-04
-4.194746e-04
-1.565389e-04
7.545703e-05
1.041977e-04
2.744483e-05
-2.766549e-05
-2.684379e-05
-3.142422e-06
9.778165e-06
6.762554e-06
-5.345471e-07
-3.287786e-06
-1.588926e-06
6.411467e-07
1.051255e-06
1.934441e-07
-1.786015e-07
1.000105e+00
9.998297e-01
9.996132e-01
1.000536e+00
1.001189e+00
9.991138e-01
9.963310e-01
9.996817e-01
1.010853e+00
1.014751e+00
9.808040e-01
8.809324e-01
7.113287e-01
5.000000e-01
2.935538e-01
1.331444e-01
3.644837e-02
-4.305484e-03
-1.101479e-02
-5.255248e-03
1.751453e-04
1.753460e-03
9.435355e-04
-7.292554e-05
-3.833316e-04
-1.896288e-04
4.053502e-05
9.734600e-05
3.834860e-05
-1.829274e-05
-2.616122e-05
-6.891528e-06
7.310233e-06
7.032104e-06
7.395214e-07
-2.707069e-06
-1.830437e-06
2.798572e-07
8.513129e-07
2.589507e-07
1.000040e+00
1.000086e+00
9.997039e-01
9.997369e-01
1.000723e+00
1.000941e+00
9.986602e-01
9.966198e-01
1.000905e+00
1.011422e+00
1.012380e+00
9.748802e-01
8.736758e-01
7.064462e-01
5.000000e-01
2.980868e-01
1.395742e-01
4.185464e-02
-1.416572e-03
-1.039757e-02
-5.743647e-03
-3.786719e-04
1.559281e-03
1.023899e-03
5.359073e-05
-3.359943e-04
-2.117332e-04
7.594261e-06
8.675312e-05
4.602899e-05
-9.172751e-06
-2.414637e-05
-9.726865e-06
4.767059e-06
6.845481e-06
1.774610e-06
-2.068105e-06
-1.863830e-06
1.843330e-09
4.408983e-07
9.999757e-01
1.000114e+00
1.000013e+00
9.996503e-01
9.998953e-01
1.000821e+00
1.000643e+00
9.983241e-01
9.970358e-01
1.002026e+00
1.011688e+00
1.009820e+00
9.691292e-01
8.668556e-01
7.019132e-01
5.000000e-01
3.023130e-01
1.456521e-01
4.709360e-02
1.528057e-03
-9.623778e-03
-6.111701e-03
-9.031579e-04
1.335122e-03
1.069324e-03
1.689031e-04
-2.807915e-04
-2.236746e-04
-2.227047e-05
7.353035e-05
5.066162e-05
-7.316878e-07
-2.114682e-05
-1.166601e-05
2.308449e-06
6.307707e-06
2.517073e-06
-1.453434e-06
-1.631850e-06
-2.908987e-07
9.999708e-01
1.000020e+00
1.000131e+00
9.999326e-01
9.996537e-01
1.000052e+00
1.000843e+00
1.000334e+00
9.981005e-01
9.975366e-01
1.003026e+00
1.011687e+00
1.007116e+00
9.635516e-01
8.604258e-01
6.976870e-01
5.000000e-01
3.062677e-01
1.514115e-01
5.217023e-02
4.510365e-03
-8.713040e-03
-6.365126e-03
-1.391975e-03
1.089386e-03
1.082909e-03
2.710626e-04
-2.206395e-04
-2.265178e-04
-4.834779e-05
5.865982e-05
5.252723e-05
6.743353e-06
-1.748023e-05
-1.276914e-05
8.186649e-08
5.555355e-06
2.904274e-06
-8.443784e-07
-1.005418e-06
9.999960e-01
9.999611e-01
1.000060e+00
1.000113e+00
9.998661e-01
9.996959e-01
1.000189e+00
1.000806e+00
1.000037e+00
9.979787e-01
9.980887e-01
1.003899e+00
1.011453e+00
1.004305e+00
9.581454e-01
8.543479e-01
6.937323e-01
5.000000e-01
3.099803e-01
1.568812e-01
5.709005e-02
7.515919e-03
-7.682649e-03
-6.510009e-03
-1.840591e-03
8.293946e-04
1.067972e-03
3.588915e-04
-1.580180e-04
-2.214356e-04
-7.021285e-05
4.299060e-05
5.197390e-05
1.307271e-05
-1.345015e-05
-1.316873e-05
-1.787147e-06
4.650002e-06
2.790772e-06
2.263300e-08
1.000011e+00
9.999717e-01
9.999740e-01
1.000086e+00
1.000077e+00
9.998208e-01
9.997614e-01
1.000298e+00
1.000724e+00
9.997658e-01
9.979455e-01
9.986665e-01
1.004642e+00
1.011015e+00
1.001417e+00
9.529064e-01
8.485885e-01
6.900197e-01
5.000000e-01
3.134758e-01
1.620864e-01
6.185882e-02
1.053317e-02
-6.547878e-03
-6.552528e-03
-2.245909e-03
5.614814e-04
1.027881e-03
4.317923e-04
-9.502254e-05
-2.096556e-04
-8.768939e-05
2.723073e-05
4.939505e-05
1.820252e-05
-9.323032e-06
-1.296388e-05
-3.095375e-06
3.476571e-06
2.070422e-06
1.000007e+00
1.000003e+00
9.999604e-01
9.999954e-01
1.000097e+00
1.000034e+00
9.997973e-01
9.998377e-01
1.000375e+00
1.000613e+00
9.995294e-01
9.979876e-01
9.992503e-01
1.005255e+00
1.010398e+00
9.984719e-01
9.478298e-01
8.431188e-01
6.865242e-01
5.000000e-01
3.167754e-01
1.670491e-01
6.648228e-02
1.355289e-02
-5.322286e-03
-6.498759e-03
-2.605976e-03
2.911211e-04
9.659780e-04
4.896484e-04
-3.335730e-05
-1.923779e-04
-1.007920e-04
1.193234e-05
4.518882e-05
2.211591e-05
-5.439579e-06
-1.215810e-05
-3.639926e-06
1.315184e-06
9.999989e-01
1.000014e+00
9.999912e-01
9.999598e-01
1.000017e+00
1.000094e+00
9.999928e-01
9.997929e-01
9.999160e-01
1.000422e+00
1.000484e+00
9.993319e-01
9.980919e-01
9.998249e-01
1.005744e+00
1.009624e+00
9.954896e-01
9.429099e-01
8.379136e-01
6.832246e-01
5.000000e-01
3.198974e-01
1.717889e-01
7.096601e-02
1.656780e-02
-4.017987e-03
-6.354541e-03
-2.919785e-03
2.299501e-05
8.854691e-04
5.326639e-04
2.560571e-05
-1.707448e-04
-1.096774e-04
-2.458295e-06
3.985401e-05
2.479542e-05
-2.149987e-06
-1.023598e-05
-3.608546e-06
9.999962e-01
1.000006e+00
1.000013e+00
9.999813e-01
9.999665e-01
1.000034e+00
1.000082e+00
9.999571e-01
9.998038e-01
9.999901e-01
1.000443e+00
1.000347e+00
9.991744e-01
9.982465e-01
1.000379e+00
1.006112e+00
1.008713e+00
9.924841e-01
9.381412e-01
8.329509e-01
6.801026e-01
5.000000e-01
3.228574e-01
1.763236e-01
7.531530e-02
1.957228e-02
-2.645897e-03
-6.125346e-03
-3.187068e-03
-2.388535e-04
7.894276e-04
5.613058e-04
8.080696e-05
-1.458226e-04
-1.147034e-04
-1.558275e-05
3.392442e-05
2.581826e-05
3.685529e-07
-5.612166e-06
9.999986e-01
9.999968e-01
1.000011e+00
1.000008e+00
9.999751e-01
9.999771e-01
1.000046e+00
1.000064e+00
9.999291e-01
9.998259e-01
1.000056e+00
1.000441e+00
1.000208e+00
9.990565e-01
9.984407e-01
1.000903e+00
1.006365e+00
1.007683e+00
9.894668e-01
9.335177e-01
8.282111e-01
6.771425e-01
5.000000e-01
3.256693e-01
1.806688e-01
7.953499e-02
2.256213e-02
-1.216006e-03
-5.816232e-03
-3.408228e-03
-4.909852e-04
6.807306e-04
5.761979e-04
1.315279e-04
-1.185893e-04
-1.163717e-04
-2.680090e-05
2.795054e-05
2.378115e-05
3.762896e-06
1.000001e+00
9.999956e-01
9.999996e-01
1.000013e+00
1.000002e+00
9.999728e-01
9.999889e-01
1.000053e+00
1.000044e+00
9.999096e-01
9.998554e-01
1.000112e+00
1.000419e+00
1.000073e+00
9.989761e-01
9.986649e-01
1.001392e+00
1.006510e+00
1.006548e+00
9.864471e-01
9.290340e-01
8.236764e-01
6.743307e-01
5.000000e-01
3.283447e-01
1.848391e-01
8.362942e-02
2.553455e-02
2.624404e-04
-5.431686e-03
-3.584193e-03
-7.304222e-04
5.620374e-04
5.780652e-04
1.773711e-04
-9.023267e-05
-1.154171e-04
-3.465945e-05
2.120471e-05
1.624788e-05
1.000001e+00
9.999992e-01
9.999949e-01
1.000003e+00
1.000012e+00
9.999959e-01
9.999738e-01
1.000000e+00
1.000054e+00
1.000023e+00
9.998981e-01
9.998892e-01
1.000157e+00
1.000383e+00
9.999464e-01
9.989307e-01
9.989106e-01
1.001841e+00
1.006553e+00
1.005322e+00
9.834322e-01
9.246847e-01
8.193312e-01
6.716553e-01
5.000000e-01
3.308940e-01
1.888480e-01
8.760216e-02
2.848799e-02
1.780591e-03
-4.975607e-03
-3.716396e-03
-9.546074e-04
4.357416e-04
5.679207e-04
2.184083e-04
-6.257905e-05
-1.118289e-04
-3.638736e-05
7.410358e-06
1.000000e+00
1.000002e+00
9.999975e-01
9.999957e-01
1.000006e+00
1.000010e+00
9.999910e-01
9.999772e-01
1.000010e+00
1.000051e+00
1.000004e+00
9.998939e-01
9.999245e-01
1.000190e+00
1.000336e+00
9.998311e-01
9.989171e-01
9.991706e-01
1.002246e+00
1.006499e+00
1.004018e+00
9.804277e-01
9.204650e-01
8.151609e-01
6.691060e-01
5.000000e-01
3.333261e-01
1.927081e-01
9.145595e-02
3.142237e-02
3.329775e-03
-4.451112e-03
-3.806642e-03
-1.161507e-03
3.037961e-04
5.473699e-04
2.544926e-04
-3.886713e-05
-1.011470e-04
-3.364578e-05
9.999995e-01
1.000001e+00
1.000001e+00
9.999964e-01
9.999974e-01
1.000007e+00
1.000007e+00
9.999877e-01
9.999820e-01
1.000018e+00
1.000045e+00
9.999867e-01
9.998958e-01
9.999595e-01
1.000212e+00
1.000281e+00
9.997289e-01
9.989320e-01
9.994385e-01
1.002606e+00
1.006355e+00
1.002646e+00
9.774379e-01
9.163706e-01
8.111520e-01
6.666739e-01
5.000000e-01
3.356483e-01
1.964319e-01
9.519229e-02
3.433912e-02
4.900990e-03
-3.860294e-03
-3.856944e-03
-1.349859e-03
1.681423e-04
5.194530e-04
2.821394e-04
-1.950834e-05
-6.468036e-05
9.999997e-01
9.999999e-01
1.000002e+00
1.000000e+00
9.999961e-01
9.999992e-01
1.000008e+00
1.000004e+00
9.999859e-01
9.999876e-01
1.000023e+00
1.000037e+00
9.999726e-01
9.999027e-01
9.999924e-01
1.000224e+00
1.000221e+00
9.996411e-01
9.989721e-01
9.997089e-01
1.002920e+00
1.006125e+00
1.001216e+00
9.744655e-01
9.123978e-01
8.072919e-01
6.643517e-01
5.000000e-01
3.378668e-01
2.000316e-01
9.881131e-02
3.724154e-02
6.484330e-03
-3.203743e-03
-3.869714e-03
-1.519990e-03
3.331273e-05
4.855414e-04
2.839224e-04
2.476896e-05
1.000000e+00
9.999994e-01
1.000000e+00
1.000002e+00
9.999991e-01
9.999963e-01
1.000001e+00
1.000007e+00
1.000000e+00
9.999856e-01
9.999933e-01
1.000026e+00
1.000028e+00
9.999616e-01
9.999132e-01
1.000022e+00
1.000227e+00
1.000158e+00
9.995682e-01
9.990340e-01
9.999770e-01
1.003187e+00
1.005816e+00
9.997376e-01
9.715120e-01
9.085441e-01
8.035681e-01
6.621332e-01
5.000000e-01
3.399862e-01
2.035201e-01
1.023113e-01
4.013499e-02
8.068376e-03
-2.479556e-03
-3.849939e-03
-1.671669e-03
-8.248892e-05
4.235669e-04
2.240050e-04
1.000000e+00
9.999997e-01
9.999994e-01
1.000001e+00
1.000001e+00
9.999984e-01
9.999970e-01
1.000002e+00
1.000006e+00
9.999977e-01
9.999864e-01
9.999985e-01
1.000027e+00
1.000018e+00
9.999540e-01
9.999265e-01
1.000048e+00
1.000221e+00
1.000095e+00
9.995103e-01
9.991145e-01
1.000239e+00
1.003408e+00
1.005432e+00
9.982194e-01
9.685776e-01
9.048077e-01
7.999684e-01
6.600138e-01
5.000000e-01
3.420092e-01
2.069117e-01
1.056883e-01
4.302726e-02
9.641262e-03
-1.684332e-03
-3.816455e-03
-1.787283e-03
-1.348825e-04
2.243835e-04
1.000000e+00
1.000000e+00
9.999995e-01
9.999997e-01
1.000001e+00
1.000001e+00
9.999979e-01
9.999979e-01
1.000003e+00
1.000005e+00
9.999955e-01
9.999880e-01
1.000003e+00
1.000026e+00
1.000009e+00
9.999493e-01
9.999413e-01
1.000070e+00
1.000210e+00
1.000033e+00
9.994673e-01
9.992106e-01
1.000491e+00
1.003584e+00
1.004976e+00
9.966702e-01
9.656609e-01
9.011887e-01
7.964799e-01
6.579908e-01
5.000000e-01
3.439361e-01
2.102230e-01
1.089331e-01
4.593032e-02
1.120083e-02
-8.249000e-04
-3.820470e-03
-1.778339e-03
-1.977703e-04
1.000000e+00
1.000000e+00
1.000000e+00
9.999994e-01
1.000000e+00
1.000001e+00
1.000000e+00
9.999978e-01
9.999989e-01
1.000004e+00
1.000004e+00
9.999941e-01
9.999902e-01
1.000007e+00
1.000024e+00
1.000001e+00
9.999475e-01
9.999570e-01
1.000088e+00
1.000192e+00
9.999744e-01
9.994387e-01
9.993193e-01
1.000730e+00
1.003716e+00
1.004451e+00
9.950990e-01
9.627585e-01
8.976887e-01
7.930883e-01
6.560640e-01
5.000000e-01
3.457657e-01
2.134737e-01
1.120194e-01
4.886991e-02
1.277600e-02
4.072695e-05
-3.826929e-03
-1.557656e-03
9.999999e-01
1.000000e+00
1.000000e+00
9.999999e-01
9.999995e-01
1.000000e+00
1.000001e+00
9.999998e-01
9.999979e-01
9.999998e-01
1.000004e+00
1.000002e+00
9.999932e-01
9.999927e-01
1.000010e+00
1.000021e+00
9.999933e-01
9.999480e-01
9.999728e-01
1.000101e+00
1.000171e+00
9.999192e-01
9.994238e-01
9.994380e-01
1.000955e+00
1.003807e+00
1.003860e+00
9.935157e-01
9.598650e-01
8.943117e-01
7.897770e-01
6.542343e-01
5.000000e-01
3.475057e-01
2.166846e-01
1.148757e-01
5.191613e-02
1.432578e-02
8.489762e-04
-2.625149e-03
1.000000e+00
9.999999e-01
1.000000e+00
1.000000e+00
9.999997e-01
9.999996e-01
1.000000e+00
1.000001e+00
9.999994e-01
9.999981e-01
1.000001e+00
1.000004e+00
1.000001e+00
9.999930e-01
9.999952e-01
1.000012e+00
1.000017e+00
9.999869e-01
9.999506e-01
9.999881e-01
1.000110e+00
1.000146e+00
9.998685e-01
9.994219e-01
9.995643e-01
1.001162e+00
1.003857e+00
1.003204e+00
9.919317e-01
9.569728e-01
8.910669e-01
7.865263e-01
6.524943e-01
5.000000e-01
3.491984e-01
2.198650e-01
1.174684e-01
5.516098e-02
1.465458e-02
2.706293e-03
1.000000e+00
9.999999e-01
1.000000e+00
1.000000e+00
1.000000e+00
9.999997e-01
9.999997e-01
1.000001e+00
1.000001e+00
9.999991e-01
9.999985e-01
1.000001e+00
1.000003e+00
9.999993e-01
9.999932e-01
9.999977e-01
1.000013e+00
1.000013e+00
9.999818e-01
9.999548e-01
1.000002e+00
1.000115e+00
1.000119e+00
9.998226e-01
9.994321e-01
9.996962e-01
1.001350e+00
1.003870e+00
1.002480e+00
9.903587e-01
9.540697e-01
8.879806e-01
7.833155e-01
6.508016e-01
5.000000e-01
3.508394e-01
2.230279e-01
1.208739e-01
5.794731e-02
1.047393e-02
1.000000e+00
1.000000e+00
9.999999e-01
1.000000e+00
1.000000e+00
1.000000e+00
9.999996e-01
9.999999e-01
1.000001e+00
1.000000e+00
9.999989e-01
9.999989e-01
1.000002e+00
1.000003e+00
9.999982e-01
9.999937e-01
9.999999e-01
1.000013e+00
1.000009e+00
9.999779e-01
9.999601e-01
1.000016e+00
1.000116e+00
1.000090e+00
9.997816e-01
9.994526e-01
9.998319e-01
1.001520e+00
1.003850e+00
1.001684e+00
9.887992e-01
9.511301e-01
8.851244e-01
7.801350e-01
6.491606e-01
5.000000e-01
3.513039e-01
2.265791e-01
1.284691e-01
5.708497e-02
1.000000e+00
1.000000e+00
1.000000e+00
9.999999e-01
1.000000e+00
1.000000e+00
9.999999e-01
9.999997e-01
1.000000e+00
1.000001e+00
1.000000e+00
9.999989e-01
9.999994e-01
1.000002e+00
1.000002e+00
9.999975e-01
9.999944e-01
1.000002e+00
1.000013e+00
1.000005e+00
9.999752e-01
9.999661e-01
1.000027e+00
1.000115e+00
1.000063e+00
9.997455e-01
9.994805e-01
9.999667e-01
1.001672e+00
1.003816e+00
1.000825e+00
9.872240e-01
9.480840e-01
8.825316e-01
7.769723e-01
6.486961e-01
5.000001e-01
3.470164e-01
2.322394e-01
8.616647e-02
1.000000e+00
1.000000e+00
1.000000e+00
1.000000e+00
9.999999e-01
1.000000e+00
1.000000e+00
9.999999e-01
9.999997e-01
1.000000e+00
1.000001e+00
9.999999e-01
9.999989e-01
9.999997e-01
1.000002e+00
1.000001e+00
9.999971e-01
9.999953e-01
1.000003e+00
1.000012e+00
1.000002e+00
9.999742e-01
9.999721e-01
1.000035e+00
1.000112e+00
1.000039e+00