# vtk DataFile Version 3.0
CD_1JC
ASCII
DATASET STRUCTURED_GRID
DIMENSIONS 81 81 1
POINTS 6561 double
0.000000e+00 0.000000e+00 0.0
1.250000e-02 0.000000e+00 0.0
2.500000e-02 0.000000e+00 0.0
3.750000e-02 0.000000e+00 0.0
5.000000e-02 0.000000e+00 0.0
6.250000e-02 0.000000e+00 0.0
7.500000e-02 0.000000e+00 0.0
8.750000e-02 0.000000e+00 0.0
1.000000e-01 0.000000e+00 0.0
1.125000e-01 0.000000e+00 0.0
1.250000e-01 0.000000e+00 0.0
1.375000e-01 0.000000e+00 0.0
1.500000e-01 0.000000e+00 0.0
1.625000e-01 0.000000e+00 0.0
1.750000e-01 0.000000e+00 0.0
1.875000e-01 0.000000e+00 0.0
2.000000e-01 0.000000e+00 0.0
2.125000e-01 0.000000e+00 0.0
2.250000e-01 0.000000e+00 0.0
2.375000e-01 0.000000e+00 0.0
2.500000e-01 0.000000e+00 0.0
2.625000e-01 0.000000e+00 0.0
2.750000e-01 0.000000e+00 0.0
2.875000e-01 0.000000e+00 0.0
3.000000e-01 0.000000e+00 0.0
3.125000e-01 0.000000e+00 0.0
3.250000e-01 0.000000e+00 0.0
3.375000e-01 0.000000e+00 0.0
3.500000e-01 0.000000e+00 0.0
3.625000e-01 0.000000e+00 0.0
3.750000e-01 0.000000e+00 0.0
3.875000e-01 0.000000e+00 0.0
4.000000e-01 0.000000e+00 0.0
4.125000e-01 0.000000e+00 0.0
4.250000e-01 0.000000e+00 0.0
4.375000e-01 0.000000e+00 0.0
4.500000e-01 0.000000e+00 0.0
4.625000e-01 0.000000e+00 0.0
4.750000e-01 0.000000e+00 0.0
4.875000e-01 0.000000e+00 0.0
5.000000e-01 0.000000e+00 0.0
5.125000e-01 0.000000e+00 0.0
5.250000e-01 0.000000e+00 0.0
5.375000e-01 0.000000e+00 0.0
5.500000e-01 0.000000e+00 0.0
5.625000e-01 0.000000e+00 0.0
5.750000e-01 0.000000e+00 0.0
5.875000e-01 0.000000e+00 0.0
6.000000e-01 0.000000e+00 0.0
6.125000e-01 0.000000e+00 0.0
6.250000e-01 0.000000e+00 0.0
6.375000e-01 0.000000e+00 0.0
6.500000e-01 0.000000e+00 0.0
6.625000e-01 0.000000e+00 0.0
6.750000e-01 0.000000e+00 0.0
6.875000e-01 0.000000e+00 0.0
7.000000e-01 0.000000e+00 0.0
7.125000e-01 0.000000e+00 0.0
7.250000e-01 0.000000e+00 0.0
7.375000e-01 0.000000e+00 0.0
7.500000e-01 0.000000e+00 0.0
7.625000e-01 0.000000e+00 0.0
7.750000e-01 0.000000e+00 0.0
7.875000e-01 0.000000e+00 0.0
8.000000e-01 0.000000e+00 0.0
8.125000e-01 0.000000e+00 0.0
8.250000e-01 0.000000e+00 0.0
8.375000e-01 0.000000e+00 0.0
8.500000e-01 0.000000e+00 0.0
8.625000e-01 0.000000e+00 0.0
8.750000e-01 0.000000e+00 0.0
8.875000e-01 0.000000e+00 0.0
9.000000e-01 0.000000e+00 0.0
9.125000e-01 0.000000e+00 0.0
9.250000e-01 0.000000e+00 0.0
9.375000e-01 0.000000e+00 0.0
9.500000e-01 0.000000e+00 0.0
9.625000e-01 0.000000e+00 0.0
9.750000e-01 0.000000e+00 0.0
9.875000e-01 0.000000e+00 0.0
1.000000e+00 0.000000e+00 0.0
0.000000e+00 1.250000e-02 0.0
1.250000e-02 1.250000e-02 0.0
2.500000e-02 1.250000e-02 0.0
3.750000e-02 1.250000e-02 0.0
5.000000e-02 1.250000e-02 0.0
6.250000e-02 1.250000e-02 0.0
7.500000e-02 1.250000e-02 0.0
8.750000e-02 1.250000e-02 0.0
1.000000e-01 1.250000e-02 0.0
1.125000e-01 1.250000e-02 0.0
1.250000e-01 1.250000e-02 0.0
1.375000e-01 1.250000e-02 0.0
1.500000e-01 1.250000e-02 0.0
1.625000e-01 1.250000e-02 0.0
1.750000e-01 1.250000e-02 0.0
1.875000e-01 1.250000e-02 0.0
2.000000e-01 1.250000e-02 0.0
2.125000e-01 1.250000e-02 0.0
2.250000e-01 1.250000e-02 0.0
2.375000e-01 1.250000e-02 0.0
2.500000e-01 1.250000e-02 0.0
2.625000e-01 1.250000e-02 0.0
2.750000e-01 1.250000e-02 0.0
2.875000e-01 1.250000e-02 0.0
3.000000e-01 1.250000e-02 0.0
3.125000e-01 1.250000e-02 0.0
3.250000e-01 1.250000e-02 0.0
3.375000e-01 1.250000e-02 0.0
3.500000e-01 1.250000e-02 0.0
3.625000e-01 1.250000e-02 0.0
3.750000e-01 1.250000e-02 0.0
3.875000e-01 1.250000e-02 0.0
4.000000e-01 1.250000e-02 0.0
4.125000e-01 1.250000e-02 0.0
4.250000e-01 1.250000e-02 0.0
4.375000e-01 1.250000e-02 0.0
4.500000e-01 1.250000e-02 0.0
4.625000e-01 1.250000e-02 0.0
4.750000e-01 1.250000e-02 0.0
4.875000e-01 1.250000e-02 0.0
5.000000e-01 1.250000e-02 0.0
5.125000e-01 1.250000e-02 0.0
5.250000e-01 1.250000e-02 0.0
5.375000e-01 1.250000e-02 0.0
5.500000e-01 1.250000e-02 0.0
5.625000e-01 1.250000e-02 0.0
5.750000e-01 1.250000e-02 0.0
5.875000e-01 1.250000e-02 0.0
6.000000e-01 1.250000e-02 0.0
6.125000e-01 1.250000e-02 0.0
6.250000e-01 1.250000e-02 0.0
6.375000e-01 1.250000e-02 0.0
6.500000e-01 1.250000e-02 0.0
6.625000e-01 1.250000e-02 0.0
6.750000e-01 1.250000e-02 0.0
6.875000e-01 1.250000e-02 0.0
7.000000e-01 1.250000e-02 0.0
7.125000e-01 1.250000e-02 0.0
7.250000e-01 1.250000e-02 0.0
7.375000e-01 1.250000e-02 0.0
7.500000e-01 1.250000e-02 0.0
7.625000e-01 1.250000e-02 0.0
7.750000e-01 1.250000e-02 0.0
7.875000e-01 1.250000e-02 0.0
8.000000e-01 1.250000e-02 0.0
8.125000e-01 1.250000e-02 0.0
8.250000e-01 1.250000e-02 0.0
8.375000e-01 1.250000e-02 0.0
8.500000e-01 1.250000e-02 0.0
8.625000e-01 1.250000e-02 0.0
8.750000e-01 1.250000e-02 0.0
8.875000e-01 1.250000e-02 0.0
9.000000e-01 1.250000e-02 0.0
9.125000e-01 1.250000e-02 0.0
9.250000e-01 1.250000e-02 0.0
9.375000e-01 1.250000e-02 0.0
9.500000e-01 1.250000e-02 0.0
9.625000e-01 1.250000e-02 0.0
9.750000e-01 1.250000e-02 0.0
9.875000e-01 1.250000e-02 0.0
1.000000e+00 1.250000e-02 0.0
0.000000e+00 2.500000e-02 0.0
1.250000e-02 2.500000e-02 0.0
2.500000e-02 2.500000e-02 0.0
3.750000e-02 2.500000e-02 0.0
5.000000e-02 2.500000e-02 0.0
6.250000e-02 2.500000e-02 0.0
7.500000e-02 2.500000e-02 0.0
8.750000e-02 2.500000e-02 0.0
1.000000e-01 2.500000e-02 0.0
1.125000e-01 2.500000e-02 0.0
1.250000e-01 2.500000e-02 0.0
1.375000e-01 2.500000e-02 0.0
1.500000e-01 2.500000e-02 0.0
1.625000e-01 2.500000e-02 0.0
1.750000e-01 2.500000e-02 0.0
1.875000e-01 2.500000e-02 0.0
2.000000e-01 2.500000e-02 0.0
2.125000e-01 2.500000e-02 0.0
2.250000e-01 2.500000e-02 0.0
2.375000e-01 2.500000e-02 0.0
2.500000e-01 2.500000e-02 0.0
2.625000e-01 2.500000e-02 0.0
2.750000e-01 2.500000e-02 0.0
2.875000e-01 2.500000e-02 0.0
3.000000e-01 2.500000e-02 0.0
3.125000e-01 2.500000e-02 0.0
3.250000e-01 2.500000e-02 0.0
3.375000e-01 2.500000e-02 0.0
3.500000e-01 2.500000e-02 0.0
3.625000e-01 2.500000e-02 0.0
3.750000e-01 2.500000e-02 0.0
3.875000e-01 2.500000e-02 0.0
4.000000e-01 2.500000e-02 0.0
4.125000e-01 2.500000e-02 0.0
4.250000e-01 2.500000e-02 0.0
4.375000e-01 2.500000e-02 0.0
4.500000e-01 2.500000e-02 0.0
4.625000e-01 2.500000e-02 0.0
4.750000e-01 2.500000e-02 0.0
4.875000e-01 2.500000e-02 0.0
5.000000e-01 2.500000e-02 0.0
5.125000e-01 2.500000e-02 0.0
5.250000e-01 2.500000e-02 0.0
5.375000e-01 2.500000e-02 0.0
5.500000e-01 2.500000e-02 0.0
5.625000e-01 2.500000e-02 0.0
5.750000e-01 2.500000e-02 0.0
5.875000e-01 2.500000e-02 0.0
6.000000e-01 2.500000e-02 0.0
6.125000e-01 2.500000e-02 0.0
6.250000e-01 2.500000e-02 0.0
6.375000e-01 2.500000e-02 0.0
6.500000e-01 2.500000e-02 0.0
6.625000e-01 2.500000e-02 0.0
6.750000e-01 2.500000e-02 0.0
6.875000e-01 2.500000e-02 0.0
7.000000e-01 2.500000e-02 0.0
7.125000e-01 2.500000e-02 0.0
7.250000e-01 2.500000e-02 0.0
7.375000e-01 2.500000e-02 0.0
7.500000e-01 2.500000e-02 0.0
7.625000e-01 2.500000e-02 0.0
7.750000e-01 2.500000e-02 0.0
7.875000e-01 2.500000e-02 0.0
8.000000e-01 2.500000e-02 0.0
8.125000e-01 2.500000e-02 0.0
8.250000e-01 2.500000e-02 0.0
8.375000e-01 2.500000e-02 0.0
8.500000e-01 2.500000e-02 0.0
8.625000e-01 2.500000e-02 0.0
8.750000e-01 2.500000e-02 0.0
8.875000e-01 2.500000e-02 0.0
9.000000e-01 2.500000e-02 0.0
9.125000e-01 2.500000e-02 0.0
9.250000e-01 2.500000e-02 0.0
9.375000e-01 2.500000e-02 0.0
9.500000e-01 2.500000e-02 0.0
9.625000e-01 2.500000e-02 0.0
9.750000e-01 2.500000e-02 0.0
9.875000e-01 2.500000e-02 0.0
1.000000e+00 2.500000e-02 0.0
0.000000e+00 3.750000e-02 0.0
1.250000e-02 3.750000e-02 0.0
2.500000e-02 3.750000e-02 0.0
3.750000e-02 3.750000e-02 0.0
5.000000e-02 3.750000e-02 0.0
6.250000e-02 3.750000e-02 0.0
7.500000e-02 3.750000e-02 0.0
8.750000e-02 3.750000e-02 0.0
1.000000e-01 3.750000e-02 0.0
1.125000e-01 3.750000e-02 0.0
1.250000e-01 3.750000e-02 0.0
1.375000e-01 3.750000e-02 0.0
1.500000e-01 3.750000e-02 0.0
1.625000e-01 3.750000e-02 0.0
1.750000e-01 3.750000e-02 0.0
1.875000e-01 3.750000e-02 0.0
2.000000e-01 3.750000e-02 0.0
2.125000e-01 3.750000e-02 0.0
2.250000e-01 3.750000e-02 0.0
2.375000e-01 3.750000e-02 0.0
2.500000e-01 3.750000e-02 0.0
2.625000e-01 3.750000e-02 0.0
2.750000e-01 3.750000e-02 0.0
2.875000e-01 3.750000e-02 0.0
3.000000e-01 3.750000e-02 0.0
3.125000e-01 3.750000e-02 0.0
3.250000e-01 3.750000e-02 0.0
3.375000e-01 3.750000e-02 0.0
3.500000e-01 3.750000e-02 0.0
3.625000e-01 3.750000e-02 0.0
3.750000e-01 3.750000e-02 0.0
3.875000e-01 3.750000e-02 0.0
4.000000e-01 3.750000e-02 0.0
4.125000e-01 3.750000e-02 0.0
4.250000e-01 3.750000e-02 0.0
4.375000e-01 3.750000e-02 0.0
4.500000e-01 3.750000e-02 0.0
4.625000e-01 3.750000e-02 0.0
4.750000e-01 3.750000e-02 0.0
4.875000e-01 3.750000e-02 0.0
5.000000e-01 3.750000e-02 0.0
5.125000e-01 3.750000e-02 0.0
5.250000e-01 3.750000e-02 0.0
5.375000e-01 3.750000e-02 0.0
5.500000e-01 3.750000e-02 0.0
5.625000e-01 3.750000e-02 0.0
5.750000e-01 3.750000e-02 0.0
5.875000e-01 3.750000e-02 0.0
6.000000e-01 3.750000e-02 0.0
6.125000e-01 3.750000e-02 0.0
6.250000e-01 3.750000e-02 0.0
6.375000e-01 3.750000e-02 0.0
6.500000e-01 3.750000e-02 0.0
6.625000e-01 3.750000e-02 0.0
6.750000e-01 3.750000e-02 0.0
6.875000e-01 3.750000e-02 0.0
7.000000e-01 3.750000e-02 0.0
7.125000e-01 3.750000e-02 0.0
7.250000e-01 3.750000e-02 0.0
7.375000e-01 3.750000e-02 0.0
7.500000e-01 3.750000e-02 0.0
7.625000e-01 3.750000e-02 0.0
7.750000e-01 3.750000e-02 0.0
7.875000e-01 3.750000e-02 0.0
8.000000e-01 3.750000e-02 0.0
8.125000e-01 3.750000e-02 0.0
8.250000e-01 3.750000e-02 0.0
8.375000e-01 3.750000e-02 0.0
8.500000e-01 3.750000e-02 0.0
8.625000e-01 3.750000e-02 0.0
8.750000e-01 3.750000e-02 0.0
8.875000e-01 3.750000e-02 0.0
9.000000e-01 3.750000e-02 0.0
9.125000e-01 3.750000e-02 0.0
9.250000e-01 3.750000e-02 0.0
9.375000e-01 3.750000e-02 0.0
9.500000e-01 3.750000e-02 0.0
9.625000e-01 3.750000e-02 0.0
9.750000e-01 3.750000e-02 0.0
9.875000e-01 3.750000e-02 0.0
1.000000e+00 3.750000e-02 0.0
0.000000e+00 5.000000e-02 0.0
1.250000e-02 5.000000e-02 0.0
2.500000e-02 5.000000e-02 0.0
3.750000e-02 5.000000e-02 0.0
5.000000e-02 5.000000e-02 0.0
[...]
CELL_DATA 6400
SCALARS Temperature double 1
LOOKUP_TABLE default
5.000000e-01
9.600821e-02
-1.525569e-02
-2.022563e-02
-5.802864e-03
1.867717e-03
2.419979e-03
7.701853e-04
-2.796536e-04
-3.911507e-04
-1.373690e-04
4.600265e-05
7.286904e-05
2.831115e-05
-7.852672e-06
-1.471074e-05
-6.320797e-06
1.331442e-06
3.121715e-06
1.480602e-06
-2.122787e-07
-6.843637e-07
-3.575642e-07
2.819888e-08
1.533078e-07
8.811061e-08
-1.591929e-09
-3.483063e-08
-2.201079e-08
-8.597427e-10
7.980862e-09
5.550091e-09
5.159274e-10
-1.835961e-09
-1.408364e-09
-2.030923e-10
4.223335e-10
3.588619e-10
6.940594e-11
-9.676253e-11
-9.166693e-11
-2.210665e-11
2.198537e-11
2.344196e-11
6.752769e-12
-4.927549e-12
-5.995022e-12
-2.006481e-12
1.081595e-12
1.531733e-12
5.845777e-13
-2.299726e-13
-3.906486e-13
-1.678041e-13
4.648123e-14
9.936321e-14
4.760874e-14
-8.599719e-15
-2.517781e-14
-1.338077e-14
1.315286e-15
6.353624e-15
3.720513e-15
-8.769963e-17
-1.593044e-15
-1.032412e-15
-3.330977e-17
3.739401e-16
2.864950e-16
4.174377e-17
-1.018367e-16
-4.384496e-17
-3.139707e-17
-2.296556e-17
3.824716e-17
-1.934131e-17
3.925959e-17
9.296004e-17
-6.964475e-17
-3.430923e-17
9.039918e-01
5.000000e-01
1.854992e-01
2.807612e-02
-1.736364e-02
-1.443571e-02
-3.376626e-03
1.971132e-03
2.053998e-03
5.893606e-04
-2.918010e-04
-3.611462e-04
-1.209316e-04
4.781459e-05
7.063425e-05
2.699965e-05
-8.101708e-06
-1.470352e-05
-6.331332e-06
1.350500e-06
3.183887e-06
1.530911e-06
-2.070635e-07
-7.075131e-07
-3.776859e-07
2.449419e-08
1.599185e-07
9.444947e-08
-7.372800e-11
-3.653440e-08
-2.383920e-08
-1.387789e-09
8.394813e-09
6.055036e-09
6.856402e-10
-1.932019e-09
-1.544323e-09
-2.551733e-10
4.436067e-10
3.948615e-10
8.491133e-11
-1.012016e-10
-1.010817e-10
-2.662480e-11
2.282956e-11
2.587931e-11
8.048246e-12
-5.060830e-12
-6.620289e-12
-2.373237e-12
1.092560e-12
1.690717e-12
6.873334e-13
-2.263661e-13
-4.307061e-13
-1.963350e-13
4.378548e-14
1.093657e-13
5.546899e-14
-7.433252e-15
-2.764006e-14
-1.554809e-14
9.003867e-16
6.968571e-15
4.293815e-15
6.770423e-17
-1.777928e-15
-1.200356e-15
-2.471346e-17
4.071324e-16
3.682154e-16
2.877432e-17
-2.462722e-16
-1.989147e-17
1.322481e-17
5.184036e-17
2.366604e-16
-1.788090e-16
-2.302061e-16
5.393337e-17
1.015256e+00
8.145008e-01
5.000000e-01
2.242072e-01
5.842345e-02
-7.023868e-03
-1.599161e-02
-7.155183e-03
1.815398e-04
2.139077e-03
1.207650e-03
5.665472e-05
-3.537732e-04
-2.349689e-04
-2.563071e-05
6.475825e-05
4.943276e-05
8.184601e-06
-1.252055e-05
-1.091147e-05
-2.384900e-06
2.492378e-06
2.485612e-06
6.697399e-07
-5.020646e-07
-5.784704e-07
-1.846652e-07
1.008526e-07
1.366250e-07
5.038586e-08
-1.988009e-08
-3.259384e-08
-1.365508e-08
3.758462e-09
7.826460e-09
3.682713e-09
-6.530035e-10
-1.886254e-09
-9.893835e-10
9.321712e-11
4.552046e-10
2.649180e-10
-5.754453e-12
-1.097608e-10
-7.071559e-11
-3.043987e-12
2.638809e-11
1.881955e-11
1.922126e-12
-6.311434e-12
-4.993199e-12
-7.843052e-13
1.498028e-12
1.320611e-12
2.760789e-13
-3.517735e-13
-3.481119e-13
-9.017574e-14
8.141677e-14
9.142390e-14
2.814574e-14
-1.847949e-14
-2.392670e-14
-8.478685e-15
4.076963e-15
6.236688e-15
2.486560e-15
-9.415728e-16
-1.562681e-15
-6.844352e-16
2.258877e-16
4.865794e-16
1.378800e-17
-1.264287e-16
-5.827490e-17
-8.646349e-17
3.814753e-16
1.507591e-16
-3.683635e-16
-1.605213e-17
1.020226e+00
9.719239e-01
7.757928e-01
5.000000e-01
2.481519e-01
8.208811e-02
4.976682e-03
-1.409159e-02
-9.321887e-03
-1.772846e-03
1.574231e-03
1.479589e-03
4.157470e-04
-2.178596e-04
-2.721684e-04
-9.688195e-05
3.239234e-05
5.424409e-05
2.301021e-05
-4.726914e-06
-1.134673e-05
-5.563884e-06
5.923707e-07
2.447256e-06
1.364308e-06
-3.409740e-08
-5.381556e-07
-3.380486e-07
-1.531027e-08
1.197111e-07
8.440025e-08
9.118555e-09
-2.677229e-08
-2.118535e-08
-3.508637e-09
5.987069e-09
5.336796e-09
1.172380e-09
-1.331628e-09
-1.347234e-09
-3.657536e-10
2.927734e-10
3.403952e-10
1.096286e-10
-6.312536e-11
-8.598562e-11
-3.201411e-11
1.319109e-11
2.169355e-11
9.178941e-12
-2.618357e-12
-5.461013e-12
-2.595872e-12
4.738133e-13
1.370320e-12
7.262600e-13
-6.987097e-14
-3.423581e-13
-2.014313e-13
4.299224e-15
8.508130e-14
5.543324e-14
2.604036e-15
-2.102138e-14
-1.523741e-14
-1.643804e-15
5.024206e-15
4.323805e-15
8.583963e-16
-1.335559e-15
-1.120916e-15
-6.633177e-16
1.196636e-16
8.737295e-16
2.107855e-16
3.296107e-16
-5.644769e-17
-1.476811e-15
-1.101310e-16
3.614811e-16
1.005803e+00
1.017364e+00
9.415766e-01
7.518481e-01
5.000000e-01
2.654663e-01
1.015759e-01
1.704993e-02
-1.033388e-02
-1.014261e-02
-3.459512e-03
7.091229e-04
1.455798e-03
6.878026e-04
-3.200025e-05
-2.450010e-04
-1.444490e-04
-8.304223e-06
4.481354e-05
3.165598e-05
4.387937e-06
-8.580663e-06
-7.149534e-06
-1.485970e-06
1.680841e-06
1.649339e-06
4.459712e-07
-3.310236e-07
-3.862027e-07
-1.271710e-07
6.443843e-08
9.136700e-08
3.531856e-08
-1.213114e-08
-2.176182e-08
-9.657982e-09
2.127580e-09
5.203420e-09
2.614518e-09
-3.179697e-10
-1.245954e-09
-7.027099e-10
2.738209e-11
2.980939e-10
1.878182e-10
6.150257e-12
-7.110074e-11
-4.996498e-11
-4.836730e-12
1.686688e-11
1.323628e-11
2.057727e-12
-3.968762e-12
-3.492428e-12
-7.346812e-13
9.231469e-13
9.178504e-13
2.411434e-13
-2.113202e-13
-2.402026e-13
-7.536460e-14
4.738064e-14
6.250926e-14
2.272730e-14
-1.021395e-14
-1.626259e-14
-6.514567e-15
2.138885e-15
3.917811e-15
1.967722e-15
-6.135360e-16
-9.054397e-16
8.567878e-17
-2.221754e-16
1.570771e-16
-8.998365e-17
-1.017903e-15
8.871863e-16
9.273546e-16
-3.191638e-16
9.981323e-01
1.014436e+00
1.007024e+00
9.179119e-01
7.345337e-01
5.000000e-01
2.790277e-01
1.181552e-01
2.868810e-02
-5.531597e-03
-9.905829e-03
-4.730261e-03
-2.435902e-04
1.217494e-03
8.433533e-04
1.531363e-04
-1.752418e-04
-1.630553e-04
-4.549136e-05
2.685093e-05
3.328358e-05
1.206326e-05
-4.098217e-06
-7.042295e-06
-3.097989e-06
5.714642e-07
1.525728e-06
7.874471e-07
-5.684988e-08
-3.355583e-07
-1.995274e-07
-3.352816e-09
7.442398e-08
5.052188e-08
4.640621e-09
-1.655329e-08
-1.279179e-08
-2.021940e-09
3.672716e-09
3.238276e-09
7.078186e-10
-8.082808e-10
-8.192957e-10
-2.257321e-10
1.752305e-10
2.070408e-10
6.842021e-11
-3.706518e-11
-5.222321e-11
-2.009085e-11
7.533998e-12
1.313819e-11
5.773090e-12
-1.430670e-12
-3.293902e-12
-1.632842e-12
2.377379e-13
8.222164e-13
4.562534e-13
-2.740599e-14
-2.040769e-13
-1.263015e-13
-1.801625e-15
5.038431e-14
3.464223e-14
2.895313e-15
-1.233821e-14
-9.644799e-15
-1.304926e-15
2.949580e-15
2.707913e-15
8.501545e-16
-9.736246e-16
-9.525238e-16
-2.423122e-16
-1.483928e-16
8.207507e-16
7.702345e-16
-5.875872e-16
-1.209993e-16
9.975800e-01
1.003377e+00
1.015992e+00
9.950233e-01
8.984241e-01
7.209723e-01
5.000000e-01
2.901580e-01
1.325701e-01
3.973082e-02
-1.387329e-04
-8.852614e-03
-5.553779e-03
-1.157531e-03
8.414190e-04
8.848626e-04
3.085695e-04
-8.374441e-05
-1.554770e-04
-7.284743e-05
5.717223e-06
2.902072e-05
1.695036e-05
7.520516e-07
-5.615004e-06
-3.961646e-06
-5.448767e-07
1.106720e-06
9.329720e-07
2.010667e-07
-2.190300e-07
-2.212338e-07
-6.308270e-08
4.288996e-08
5.273386e-08
1.847508e-08
-8.153163e-09
-1.261136e-08
-5.218213e-09
1.457668e-09
3.020292e-09
1.442184e-09
-2.284265e-10
-7.229991e-10
-3.929071e-10
2.431266e-11
1.726623e-10
1.059492e-10
2.015419e-12
-4.105213e-11
-2.834425e-11
-2.537419e-12
9.694778e-12
7.533430e-12
1.152170e-12
-2.267668e-12
-1.990796e-12
-4.211619e-13
5.235262e-13
5.232600e-13
1.397094e-13
-1.187553e-13
-1.368662e-13
-4.367879e-14
2.628710e-14
3.563203e-14
1.311636e-14
-5.988894e-15
-9.007354e-15
-3.684306e-15
1.432309e-15
2.767585e-15
2.345055e-16
-7.650097e-16
-4.723637e-16
-4.910639e-16
1.849866e-15
9.530613e-16
-1.643577e-15
-1.140729e-16
9.992298e-01
9.980289e-01
1.007155e+00
1.014092e+00
9.829501e-01
8.818448e-01
7.098420e-01
5.000000e-01
2.995748e-01
1.453017e-01
5.014521e-02
5.574779e-03
-7.172443e-03
-5.947694e-03
-1.959809e-03
3.906830e-04
8.285963e-04
4.202306e-04
1.283769e-05
-1.278409e-04
-8.801249e-05
-1.450739e-05
2.075017e-05
1.872458e-05
5.000116e-06
-3.401615e-06
-4.055462e-06
-1.441209e-06
5.379181e-07
8.908361e-07
3.902395e-07
-7.545831e-08
-1.975643e-07
-1.027578e-07
6.984213e-09
4.404054e-08
2.667166e-08
7.755372e-10
-9.825731e-09
-6.865096e-09
-7.529242e-10
2.184302e-09
1.757217e-09
3.165921e-10
-4.813972e-10
-4.478586e-10
-1.094417e-10
1.045145e-10
1.137095e-10
3.466071e-11
-2.215386e-11
-2.876025e-11
-1.045157e-11
4.520253e-12
7.244273e-12
3.054769e-12
-8.650618e-13
-1.816104e-12
-8.738915e-13
1.463820e-13
4.528544e-13
2.459867e-13
-1.763095e-14
-1.122912e-13
-6.868140e-14
-6.450686e-16
2.713311e-14
1.961534e-14
2.171554e-15
-7.038997e-15
-5.131115e-15
-2.394954e-15
9.230213e-16
3.578258e-15
7.660466e-16
1.220397e-15
-2.651849e-16
-5.719914e-15
-3.399619e-16
1.417867e-15
1.000280e+00
9.979460e-01
9.998185e-01
1.009322e+00
1.010334e+00
9.713119e-01
8.674299e-01
7.004252e-01
5.000000e-01
3.077136e-01
1.566825e-01
5.994810e-02
1.144141e-02
-5.011913e-03
-5.949018e-03
-2.610709e-03
-8.590758e-05
6.955916e-04
4.836719e-04
1.025445e-04
-8.708252e-05
-9.116175e-05
-3.116061e-05
1.042709e-05
1.769570e-05
8.081246e-06
-9.188314e-07
-3.511927e-06
-2.002530e-06
-4.846891e-08
7.058652e-07
4.884453e-07
6.196444e-08
-1.422904e-07
-1.184426e-07
-2.506828e-08
2.846196e-08
2.865145e-08
8.216243e-09
-5.572423e-09
-6.920137e-09
-2.469613e-09
1.045547e-09
1.668390e-09
7.092501e-10
-1.805446e-10
-4.011634e-10
-1.981626e-10
2.581620e-11
9.608221e-11
5.436219e-11
-1.733329e-12
-2.288592e-11
-1.471824e-11
-7.406211e-13
5.410293e-12
3.944759e-12
4.809246e-13
-1.266164e-12
-1.048359e-12
-1.956106e-13
2.926422e-13
2.763425e-13
6.790712e-14
-6.613141e-14
-7.265216e-14
-2.121110e-14
1.488535e-14
1.786993e-14
6.807656e-15
-3.970914e-15
-4.518881e-15
5.116740e-16
-1.661441e-16
8.305957e-16
-1.248411e-16
-4.259595e-15
2.606634e-15
3.839372e-15
-1.016269e-15
1.000391e+00
9.994106e-01
9.978609e-01
1.001773e+00
1.010143e+00
1.005532e+00
9.602692e-01
8.546983e-01
6.922864e-01
5.000000e-01
3.148607e-01
1.669534e-01
6.917531e-02
1.735418e-02
-2.484322e-03
-5.600777e-03
-3.091151e-03
-5.519623e-04
5.072507e-04
5.003389e-04
1.775784e-04
-3.967365e-05
-8.392070e-05
-4.281371e-05
-2.594545e-07
1.450115e-05
9.771405e-06
1.419180e-06
-2.532759e-06
-2.204132e-06
-5.542784e-07
4.364487e-07
4.967722e-07
1.705206e-07
-7.154117e-08
-1.121079e-07
-4.812257e-08
1.032968e-08
2.530984e-08
1.303166e-08
-9.929052e-10
-5.703900e-09
-3.448782e-09
-9.935454e-11
1.279344e-09
8.996904e-10
1.033536e-10
-2.844932e-10
-2.323773e-10
-4.405194e-11
6.240598e-11
5.956140e-11
1.532830e-11
-1.340719e-11
-1.516709e-11
-4.871162e-12
2.789826e-12
3.838812e-12
1.471073e-12
-5.515660e-13
-9.655361e-13
-4.301681e-13
9.944691e-14
2.413969e-13
1.229091e-13
-1.437219e-14
-5.982118e-14
-3.504730e-14
8.178580e-16
1.456653e-14
9.891774e-15
1.553032e-15
-3.778581e-15
-3.440750e-15
-7.005969e-16
-2.348777e-16
1.643808e-15
2.668386e-15
-8.306802e-16
-5.370589e-16
1.000137e+00
1.000292e+00
9.987924e-01
9.984258e-01
1.003460e+00
1.009906e+00
1.000139e+00
9.498548e-01
8.433175e-01
6.851393e-01
5.000000e-01
3.212151e-01
1.762956e-01
7.786868e-02
2.324358e-02
3.224141e-04
-4.945915e-03
-3.394861e-03
-9.811215e-04
2.833092e-04
4.750632e-04
2.334855e-04
8.934555e-06
-6.861176e-05
-4.899024e-05
-1.001837e-05
9.892469e-06
1.009552e-05
3.328275e-06
-1.330935e-06
-2.083177e-06
-9.202169e-07
1.392712e-07
4.311432e-07
2.385328e-07
1.250840e-10
-8.917599e-08
-6.006876e-08
-6.704321e-09
1.832046e-08
1.490012e-08
3.013038e-09
-3.705965e-09
-3.662281e-09
-1.032192e-09
7.285568e-10
8.941896e-10
3.182075e-10
-1.361193e-10
-2.170597e-10
-9.287100e-11
2.307759e-11
5.237594e-11
2.622469e-11
-3.110584e-12
-1.255249e-11
-7.244090e-12
1.214843e-13
2.984031e-12
1.969518e-12
1.335706e-13
-7.023510e-13
-5.293134e-13
-7.417263e-14
1.634177e-13
1.408808e-13
2.893405e-14
-3.887572e-14
-3.687994e-14
-9.076559e-15
9.257005e-15
1.178067e-14
8.529919e-16
-4.686738e-15
-2.406075e-15
-2.306691e-15
5.767930e-15
6.115848e-15
-4.672560e-15
-1.121938e-15
9.999540e-01
1.000361e+00
9.999433e-01
9.985204e-01
9.992909e-01
1.004730e+00
1.008853e+00
9.944252e-01
9.400519e-01
8.330466e-01
6.787849e-01
5.000000e-01
3.269214e-01
1.848491e-01
8.607040e-02
2.906414e-02
3.339684e-03
-4.024624e-03
-3.523441e-03
-1.354856e-03
4.102533e-05
4.144240e-04
2.683463e-04
5.448036e-05
-4.776359e-05
-4.988722e-05
-1.797369e-05
4.600749e-06
9.238919e-06
4.649611e-06
-9.599097e-08
-1.712207e-06
-1.122012e-06
-1.392152e-07
3.147289e-07
2.636674e-07
6.173014e-08
-5.641200e-08
-6.121282e-08
-2.012081e-08
9.563014e-09
1.410987e-08
5.884133e-09
-1.432464e-09
-3.232849e-09
-1.632258e-09
1.493341e-10
7.356373e-10
4.392968e-10
9.441716e-12
-1.658881e-10
-1.159575e-10
-1.309317e-11
3.694345e-11
3.019191e-11
5.785390e-12
-8.083422e-12
-7.777988e-12
-2.044133e-12
1.723760e-12
1.986131e-12
6.546632e-13
-3.523634e-13
-5.031452e-13
-1.995538e-13
6.767952e-14
1.246599e-13
6.032198e-14
-9.045662e-15
-3.241607e-14
-1.616377e-14
-3.471874e-15
4.387196e-15
1.135276e-14
1.622202e-15
3.033215e-15
1.328541e-15
-1.770347e-14
-2.936830e-15
4.660973e-15
9.999271e-01
1.000121e+00
1.000354e+00
9.995843e-01
9.985442e-01
1.000244e+00
1.005554e+00
1.007172e+00
9.885586e-01
9.308247e-01
8.237044e-01
6.730786e-01
5.000000e-01
3.320881e-01
1.927244e-01
9.382058e-02
3.478623e-02
6.513624e-03
-2.873314e-03
-3.483222e-03
-1.660633e-03
-2.050116e-04
3.257033e-04
2.820787e-04
9.386013e-05
-2.381114e-05
-4.613736e-05
-2.362363e-05
-7.391816e-07
7.473979e-06
5.329466e-06
1.023215e-06
-1.178068e-06
-1.162716e-06
-3.663080e-07
1.721789e-07
2.503438e-07
1.064877e-07
-2.040149e-08
-5.346517e-08
-2.860549e-08
7.324208e-10
1.131661e-08
7.392521e-09
6.918089e-10
-2.364017e-09
-1.868654e-09
-3.541300e-10
4.837615e-10
4.655937e-10
1.271368e-10
-9.577258e-11
-1.147715e-10
-4.020597e-11
1.793346e-11
2.803535e-11
1.192342e-11
-3.025844e-12
-6.788708e-12
-3.402116e-12
3.976697e-13
1.629676e-12
9.456019e-13
-1.112884e-14
-3.863027e-13
-2.590506e-13
-1.762271e-14
9.165661e-14
6.686298e-14
1.075508e-14
-2.347477e-14
-1.817803e-14
3.072771e-15
3.046075e-15
3.892795e-15
6.961267e-17
-1.304427e-14
5.269749e-15
1.103095e-14
-2.424037e-15
9.999717e-01
9.999522e-01
1.000235e+00
1.000218e+00
9.993122e-01
9.987825e-01
1.001158e+00
1.005948e+00
1.005012e+00
9.826458e-01
9.221313e-01
8.151509e-01
6.679119e-01
5.000000e-01
3.367987e-01
2.000109e-01
1.011563e-01
4.039086e-02
9.801714e-03
-1.524385e-03
-3.283254e-03
-1.890459e-03
-4.427714e-04
2.162384e-04
2.758766e-04
1.250037e-04
1.073039e-06
-3.862194e-05
-2.677540e-05
-5.623809e-06
5.104889e-06
5.393738e-06
1.923859e-06
-5.669182e-07
-1.064117e-06
-5.232695e-07
2.579138e-08
2.070786e-07
1.315316e-07
1.338150e-08
-3.956455e-08
-3.189241e-08
-6.877553e-09
7.325326e-09
7.581233e-09
2.371093e-09
-1.280505e-09
-1.778590e-09
-7.165620e-10
1.992154e-10
4.127854e-10
2.031787e-10
-2.268790e-11
-9.477619e-11
-5.552747e-11
-5.288746e-13
2.149295e-11
1.481698e-11
1.574605e-12
-4.798821e-12
-3.886635e-12
-7.343086e-13
1.049253e-12
1.006079e-12
2.646141e-13
-2.219954e-13
-2.573429e-13
-8.598320e-14
4.469327e-14
6.426851e-14
2.637974e-14
-7.178973e-15
-1.531225e-14
-7.856239e-15
3.115143e-16
2.220030e-15
9.933241e-16
2.651433e-15
6.727404e-16
-7.519182e-16
1.000008e+00
9.999294e-01
1.000026e+00
1.000272e+00
1.000032e+00
9.991566e-01
9.991586e-01
1.001960e+00
1.005949e+00
1.002484e+00
9.767564e-01
9.139296e-01
8.072756e-01
6.632013e-01
5.000000e-01
3.411192e-01
2.067813e-01
1.081113e-01
4.586636e-02
1.317023e-02
-6.372107e-06
-2.934008e-03
-2.039742e-03
-6.625386e-04
9.303586e-05
2.517765e-04
1.467150e-04
2.506034e-05
-2.833171e-05
-2.747442e-05
-9.689651e-06
2.429247e-06
4.922760e-06
2.547157e-06
4.528479e-08
-8.588346e-07
-6.036266e-07
-1.066347e-07
1.441962e-07
1.371751e-07
4.101322e-08
-2.244879e-08
-3.049949e-08
-1.245129e-08
2.924011e-09
6.678686e-09
3.448058e-09
-1.856751e-10
-1.441359e-09
-9.111442e-10
-6.700539e-11
3.056644e-10
2.341490e-10
4.088507e-11
-6.328068e-11
-5.905617e-11
-1.545857e-11
1.263931e-11
1.468750e-11
5.019958e-12
-2.382740e-12
-3.610069e-12
-1.514856e-12
4.055450e-13
8.789576e-13
4.372761e-13
-5.267275e-14
-2.165758e-13
-1.237741e-13
4.364694e-15
5.204981e-14
4.247298e-14
-5.222325e-16
-2.399624e-14
-9.998966e-15
-8.460693e-15
1.401242e-14
2.940318e-14
-9.098146e-15
-6.492412e-15
1.000015e+00
9.999730e-01
9.999352e-01
1.000097e+00
1.000245e+00
9.998469e-01
9.991151e-01
9.996093e-01
1.002611e+00
1.005601e+00
9.996776e-01
9.709359e-01
9.061794e-01
7.999891e-01
6.588808e-01
5.000000e-01
3.451025e-01
2.130961e-01
1.147162e-01
5.120606e-02
1.659230e-02
1.655743e-03
-2.446543e-03
-2.106416e-03
-8.566228e-04
-3.744254e-05
2.123300e-04
1.585095e-04
4.669208e-05
-1.626842e-05
-2.593792e-05
-1.270607e-05
-2.863990e-07
4.029234e-06
2.872339e-06
5.979026e-07
-5.838523e-07
-6.105646e-07
-2.126574e-07
7.207968e-08
1.259962e-07
6.019873e-08
-4.809283e-09
-2.543974e-08
-1.563182e-08
-1.224294e-09
5.013214e-09
3.888282e-09
7.633759e-10
-9.541321e-10
-9.428223e-10
-2.789867e-10
1.714940e-10
2.245969e-10
8.704768e-11
-2.766489e-11
-5.273381e-11
-2.519990e-11
3.419125e-12
1.221048e-11
6.987811e-12
-4.197923e-14
-2.781549e-12
-1.883418e-12
-1.840313e-13
6.234202e-13
4.917705e-13
9.537763e-14
-1.280093e-13
-1.318913e-13
-3.045081e-14
1.653016e-14
1.925960e-14
2.875956e-14
-1.151930e-15
4.595628e-15
1.260990e-14
-4.715464e-14
-1.528402e-14
1.363727e-14
1.000006e+00
1.000008e+00
9.999506e-01
9.999676e-01
1.000144e+00
1.000175e+00
9.996914e-01
9.991714e-01
1.000086e+00
1.003091e+00
1.004946e+00
9.966603e-01
9.652138e-01
8.988437e-01
7.932187e-01
6.548975e-01
5.000000e-01
3.487914e-01
2.190060e-01
1.209987e-01
5.640684e-02
2.004648e-02
3.440164e-03
-1.831983e-03
-2.090275e-03
-1.019066e-03
-1.693847e-04
1.603636e-04
1.604628e-04
6.487156e-05
-3.378565e-06
-2.249714e-05
-1.455940e-05
-2.820232e-06
2.840365e-06
2.908861e-06
1.047500e-06
-2.756800e-07
-5.540876e-07
-2.851515e-07
-1.989621e-11
1.019376e-07
7.011718e-08
1.117845e-08
-1.795889e-08
-1.644427e-08
-4.636962e-09
2.940724e-09
3.751595e-09
1.465720e-09
-4.128140e-10
-8.388167e-10
-4.171790e-10
3.511391e-11
1.841141e-10
1.124682e-10
5.829902e-12
-3.958887e-11
-2.933914e-11
-4.637000e-12
8.290157e-12
7.486179e-12
1.859125e-12
-1.674594e-12
-1.875685e-12
-6.237989e-13
3.233906e-13
4.665861e-13
1.844294e-13
-5.335039e-14
-1.195279e-13
-5.584398e-14
2.379874e-14
2.330681e-14
1.415910e-14
-1.891482e-15
-3.443015e-14
9.122431e-15
2.607409e-14
-4.810623e-15
9.999987e-01
1.000015e+00
9.999918e-01
9.999458e-01
1.000008e+00
1.000163e+00
1.000084e+00
9.995798e-01
9.993044e-01
1.000552e+00
1.003395e+00
1.004025e+00
9.934864e-01
9.596091e-01
8.918887e-01
7.869039e-01
6.512086e-01
5.000000e-01
3.522217e-01
2.245536e-01
1.269835e-01
6.146799e-02
2.351558e-02
5.327914e-03
-1.101179e-03
-1.992461e-03
-1.145373e-03
-2.976627e-04
9.880501e-05
1.530782e-04
7.883680e-05
9.487971e-06
-1.754988e-05
-1.523328e-05
-5.000992e-06
1.484309e-06
2.688311e-06
1.367516e-06
3.294270e-08
-4.483518e-07
-3.217084e-07
-6.467980e-08
6.952849e-08
7.113940e-08
2.397734e-08
-9.325141e-09
-1.519354e-08
-7.026039e-09
7.911080e-10
3.159239e-09
1.875439e-09
1.009326e-10
-6.388056e-10
-4.768124e-10
-8.404523e-11
1.245301e-10
1.176359e-10
3.274814e-11
-2.295569e-11
-2.840883e-11
-1.055237e-11
3.829668e-12
6.743165e-12
3.116339e-12
-5.107568e-13
-1.572878e-12
-8.767207e-13
2.541574e-14
3.613550e-13
2.338882e-13
1.879171e-14
-8.571256e-14
-5.869152e-14
-1.036892e-15
1.631836e-14
1.841603e-14
-7.679424e-15
-2.043197e-14
7.105465e-15
3.442933e-15
9.999969e-01
1.000006e+00
1.000013e+00
9.999770e-01
9.999552e-01
1.000045e+00
1.000155e+00
9.999872e-01
9.995163e-01
9.994927e-01
1.000981e+00
1.003523e+00
1.002873e+00
9.901983e-01
9.541336e-01
8.852838e-01
7.809940e-01
6.477783e-01
5.000000e-01
3.554228e-01
2.297757e-01
1.326930e-01
6.639053e-02
2.698583e-02
7.302480e-03
-2.645201e-04
-1.815078e-03
-1.232265e-03
-4.178247e-04
3.056172e-05
1.371740e-04
8.812333e-05
2.160121e-05
-1.152285e-05
-1.478805e-05
-6.708347e-06
8.055456e-08
2.256869e-06
1.546559e-06
3.150214e-07
-3.093890e-07
-3.237417e-07
-1.166047e-07
3.327365e-08
6.449644e-08