# vtk DataFile Version 3.0
QUICK北邊界QUICK南邊界QUICK,Pe=infinite,Grid 41x41,000120.vtk
ASCII
DATASET STRUCTURED_GRID
DIMENSIONS 41 41 1
POINTS 1681 double
0.000000e+00 0.000000e+00 0.0
2.500000e-02 0.000000e+00 0.0
5.000000e-02 0.000000e+00 0.0
7.500000e-02 0.000000e+00 0.0
1.000000e-01 0.000000e+00 0.0
1.250000e-01 0.000000e+00 0.0
1.500000e-01 0.000000e+00 0.0
1.750000e-01 0.000000e+00 0.0
2.000000e-01 0.000000e+00 0.0
2.250000e-01 0.000000e+00 0.0
2.500000e-01 0.000000e+00 0.0
2.750000e-01 0.000000e+00 0.0
3.000000e-01 0.000000e+00 0.0
3.250000e-01 0.000000e+00 0.0
3.500000e-01 0.000000e+00 0.0
3.750000e-01 0.000000e+00 0.0
4.000000e-01 0.000000e+00 0.0
4.250000e-01 0.000000e+00 0.0
4.500000e-01 0.000000e+00 0.0
4.750000e-01 0.000000e+00 0.0
5.000000e-01 0.000000e+00 0.0
5.250000e-01 0.000000e+00 0.0
5.500000e-01 0.000000e+00 0.0
5.750000e-01 0.000000e+00 0.0
6.000000e-01 0.000000e+00 0.0
6.250000e-01 0.000000e+00 0.0
6.500000e-01 0.000000e+00 0.0
6.750000e-01 0.000000e+00 0.0
7.000000e-01 0.000000e+00 0.0
7.250000e-01 0.000000e+00 0.0
7.500000e-01 0.000000e+00 0.0
7.750000e-01 0.000000e+00 0.0
8.000000e-01 0.000000e+00 0.0
8.250000e-01 0.000000e+00 0.0
8.500000e-01 0.000000e+00 0.0
8.750000e-01 0.000000e+00 0.0
9.000000e-01 0.000000e+00 0.0
9.250000e-01 0.000000e+00 0.0
9.500000e-01 0.000000e+00 0.0
9.750000e-01 0.000000e+00 0.0
1.000000e+00 0.000000e+00 0.0
0.000000e+00 2.500000e-02 0.0
2.500000e-02 2.500000e-02 0.0
5.000000e-02 2.500000e-02 0.0
7.500000e-02 2.500000e-02 0.0
1.000000e-01 2.500000e-02 0.0
1.250000e-01 2.500000e-02 0.0
1.500000e-01 2.500000e-02 0.0
1.750000e-01 2.500000e-02 0.0
2.000000e-01 2.500000e-02 0.0
2.250000e-01 2.500000e-02 0.0
2.500000e-01 2.500000e-02 0.0
2.750000e-01 2.500000e-02 0.0
3.000000e-01 2.500000e-02 0.0
3.250000e-01 2.500000e-02 0.0
3.500000e-01 2.500000e-02 0.0
3.750000e-01 2.500000e-02 0.0
4.000000e-01 2.500000e-02 0.0
4.250000e-01 2.500000e-02 0.0
4.500000e-01 2.500000e-02 0.0
4.750000e-01 2.500000e-02 0.0
5.000000e-01 2.500000e-02 0.0
5.250000e-01 2.500000e-02 0.0
5.500000e-01 2.500000e-02 0.0
5.750000e-01 2.500000e-02 0.0
6.000000e-01 2.500000e-02 0.0
6.250000e-01 2.500000e-02 0.0
6.500000e-01 2.500000e-02 0.0
6.750000e-01 2.500000e-02 0.0
7.000000e-01 2.500000e-02 0.0
7.250000e-01 2.500000e-02 0.0
7.500000e-01 2.500000e-02 0.0
7.750000e-01 2.500000e-02 0.0
8.000000e-01 2.500000e-02 0.0
8.250000e-01 2.500000e-02 0.0
8.500000e-01 2.500000e-02 0.0
8.750000e-01 2.500000e-02 0.0
9.000000e-01 2.500000e-02 0.0
9.250000e-01 2.500000e-02 0.0
9.500000e-01 2.500000e-02 0.0
9.750000e-01 2.500000e-02 0.0
1.000000e+00 2.500000e-02 0.0
0.000000e+00 5.000000e-02 0.0
2.500000e-02 5.000000e-02 0.0
5.000000e-02 5.000000e-02 0.0
7.500000e-02 5.000000e-02 0.0
1.000000e-01 5.000000e-02 0.0
1.250000e-01 5.000000e-02 0.0
1.500000e-01 5.000000e-02 0.0
1.750000e-01 5.000000e-02 0.0
2.000000e-01 5.000000e-02 0.0
2.250000e-01 5.000000e-02 0.0
2.500000e-01 5.000000e-02 0.0
2.750000e-01 5.000000e-02 0.0
3.000000e-01 5.000000e-02 0.0
3.250000e-01 5.000000e-02 0.0
3.500000e-01 5.000000e-02 0.0
3.750000e-01 5.000000e-02 0.0
4.000000e-01 5.000000e-02 0.0
4.250000e-01 5.000000e-02 0.0
4.500000e-01 5.000000e-02 0.0
4.750000e-01 5.000000e-02 0.0
5.000000e-01 5.000000e-02 0.0
5.250000e-01 5.000000e-02 0.0
5.500000e-01 5.000000e-02 0.0
5.750000e-01 5.000000e-02 0.0
6.000000e-01 5.000000e-02 0.0
6.250000e-01 5.000000e-02 0.0
6.500000e-01 5.000000e-02 0.0
6.750000e-01 5.000000e-02 0.0
7.000000e-01 5.000000e-02 0.0
7.250000e-01 5.000000e-02 0.0
7.500000e-01 5.000000e-02 0.0
7.750000e-01 5.000000e-02 0.0
8.000000e-01 5.000000e-02 0.0
8.250000e-01 5.000000e-02 0.0
8.500000e-01 5.000000e-02 0.0
8.750000e-01 5.000000e-02 0.0
9.000000e-01 5.000000e-02 0.0
9.250000e-01 5.000000e-02 0.0
9.500000e-01 5.000000e-02 0.0
9.750000e-01 5.000000e-02 0.0
1.000000e+00 5.000000e-02 0.0
0.000000e+00 7.500000e-02 0.0
2.500000e-02 7.500000e-02 0.0
5.000000e-02 7.500000e-02 0.0
7.500000e-02 7.500000e-02 0.0
1.000000e-01 7.500000e-02 0.0
1.250000e-01 7.500000e-02 0.0
1.500000e-01 7.500000e-02 0.0
1.750000e-01 7.500000e-02 0.0
2.000000e-01 7.500000e-02 0.0
2.250000e-01 7.500000e-02 0.0
2.500000e-01 7.500000e-02 0.0
2.750000e-01 7.500000e-02 0.0
3.000000e-01 7.500000e-02 0.0
3.250000e-01 7.500000e-02 0.0
3.500000e-01 7.500000e-02 0.0
3.750000e-01 7.500000e-02 0.0
4.000000e-01 7.500000e-02 0.0
4.250000e-01 7.500000e-02 0.0
4.500000e-01 7.500000e-02 0.0
4.750000e-01 7.500000e-02 0.0
5.000000e-01 7.500000e-02 0.0
5.250000e-01 7.500000e-02 0.0
5.500000e-01 7.500000e-02 0.0
5.750000e-01 7.500000e-02 0.0
6.000000e-01 7.500000e-02 0.0
6.250000e-01 7.500000e-02 0.0
6.500000e-01 7.500000e-02 0.0
6.750000e-01 7.500000e-02 0.0
7.000000e-01 7.500000e-02 0.0
7.250000e-01 7.500000e-02 0.0
7.500000e-01 7.500000e-02 0.0
7.750000e-01 7.500000e-02 0.0
8.000000e-01 7.500000e-02 0.0
8.250000e-01 7.500000e-02 0.0
8.500000e-01 7.500000e-02 0.0
8.750000e-01 7.500000e-02 0.0
9.000000e-01 7.500000e-02 0.0
9.250000e-01 7.500000e-02 0.0
9.500000e-01 7.500000e-02 0.0
9.750000e-01 7.500000e-02 0.0
1.000000e+00 7.500000e-02 0.0
0.000000e+00 1.000000e-01 0.0
2.500000e-02 1.000000e-01 0.0
5.000000e-02 1.000000e-01 0.0
7.500000e-02 1.000000e-01 0.0
1.000000e-01 1.000000e-01 0.0
1.250000e-01 1.000000e-01 0.0
1.500000e-01 1.000000e-01 0.0
1.750000e-01 1.000000e-01 0.0
2.000000e-01 1.000000e-01 0.0
2.250000e-01 1.000000e-01 0.0
2.500000e-01 1.000000e-01 0.0
2.750000e-01 1.000000e-01 0.0
3.000000e-01 1.000000e-01 0.0
3.250000e-01 1.000000e-01 0.0
3.500000e-01 1.000000e-01 0.0
3.750000e-01 1.000000e-01 0.0
4.000000e-01 1.000000e-01 0.0
4.250000e-01 1.000000e-01 0.0
4.500000e-01 1.000000e-01 0.0
4.750000e-01 1.000000e-01 0.0
5.000000e-01 1.000000e-01 0.0
5.250000e-01 1.000000e-01 0.0
5.500000e-01 1.000000e-01 0.0
5.750000e-01 1.000000e-01 0.0
6.000000e-01 1.000000e-01 0.0
6.250000e-01 1.000000e-01 0.0
6.500000e-01 1.000000e-01 0.0
6.750000e-01 1.000000e-01 0.0
7.000000e-01 1.000000e-01 0.0
7.250000e-01 1.000000e-01 0.0
7.500000e-01 1.000000e-01 0.0
7.750000e-01 1.000000e-01 0.0
8.000000e-01 1.000000e-01 0.0
8.250000e-01 1.000000e-01 0.0
8.500000e-01 1.000000e-01 0.0
8.750000e-01 1.000000e-01 0.0
9.000000e-01 1.000000e-01 0.0
9.250000e-01 1.000000e-01 0.0
9.500000e-01 1.000000e-01 0.0
9.750000e-01 1.000000e-01 0.0
1.000000e+00 1.000000e-01 0.0
0.000000e+00 1.250000e-01 0.0
2.500000e-02 1.250000e-01 0.0
5.000000e-02 1.250000e-01 0.0
7.500000e-02 1.250000e-01 0.0
1.000000e-01 1.250000e-01 0.0
1.250000e-01 1.250000e-01 0.0
1.500000e-01 1.250000e-01 0.0
1.750000e-01 1.250000e-01 0.0
2.000000e-01 1.250000e-01 0.0
2.250000e-01 1.250000e-01 0.0
2.500000e-01 1.250000e-01 0.0
2.750000e-01 1.250000e-01 0.0
3.000000e-01 1.250000e-01 0.0
3.250000e-01 1.250000e-01 0.0
3.500000e-01 1.250000e-01 0.0
3.750000e-01 1.250000e-01 0.0
4.000000e-01 1.250000e-01 0.0
4.250000e-01 1.250000e-01 0.0
4.500000e-01 1.250000e-01 0.0
4.750000e-01 1.250000e-01 0.0
5.000000e-01 1.250000e-01 0.0
5.250000e-01 1.250000e-01 0.0
5.500000e-01 1.250000e-01 0.0
5.750000e-01 1.250000e-01 0.0
6.000000e-01 1.250000e-01 0.0
6.250000e-01 1.250000e-01 0.0
6.500000e-01 1.250000e-01 0.0
6.750000e-01 1.250000e-01 0.0
7.000000e-01 1.250000e-01 0.0
7.250000e-01 1.250000e-01 0.0
7.500000e-01 1.250000e-01 0.0
7.750000e-01 1.250000e-01 0.0
8.000000e-01 1.250000e-01 0.0
8.250000e-01 1.250000e-01 0.0
8.500000e-01 1.250000e-01 0.0
8.750000e-01 1.250000e-01 0.0
9.000000e-01 1.250000e-01 0.0
9.250000e-01 1.250000e-01 0.0
9.500000e-01 1.250000e-01 0.0
9.750000e-01 1.250000e-01 0.0
1.000000e+00 1.250000e-01 0.0
0.000000e+00 1.500000e-01 0.0
2.500000e-02 1.500000e-01 0.0
5.000000e-02 1.500000e-01 0.0
7.500000e-02 1.500000e-01 0.0
1.000000e-01 1.500000e-01 0.0
1.250000e-01 1.500000e-01 0.0
1.500000e-01 1.500000e-01 0.0
1.750000e-01 1.500000e-01 0.0
2.000000e-01 1.500000e-01 0.0
2.250000e-01 1.500000e-01 0.0
2.500000e-01 1.500000e-01 0.0
2.750000e-01 1.500000e-01 0.0
3.000000e-01 1.500000e-01 0.0
3.250000e-01 1.500000e-01 0.0
3.500000e-01 1.500000e-01 0.0
3.750000e-01 1.500000e-01 0.0
4.000000e-01 1.500000e-01 0.0
4.250000e-01 1.500000e-01 0.0
4.500000e-01 1.500000e-01 0.0
4.750000e-01 1.500000e-01 0.0
5.000000e-01 1.500000e-01 0.0
5.250000e-01 1.500000e-01 0.0
5.500000e-01 1.500000e-01 0.0
5.750000e-01 1.500000e-01 0.0
6.000000e-01 1.500000e-01 0.0
6.250000e-01 1.500000e-01 0.0
6.500000e-01 1.500000e-01 0.0
6.750000e-01 1.500000e-01 0.0
7.000000e-01 1.500000e-01 0.0
7.250000e-01 1.500000e-01 0.0
7.500000e-01 1.500000e-01 0.0
7.750000e-01 1.500000e-01 0.0
8.000000e-01 1.500000e-01 0.0
8.250000e-01 1.500000e-01 0.0
8.500000e-01 1.500000e-01 0.0
8.750000e-01 1.500000e-01 0.0
9.000000e-01 1.500000e-01 0.0
9.250000e-01 1.500000e-01 0.0
9.500000e-01 1.500000e-01 0.0
9.750000e-01 1.500000e-01 0.0
1.000000e+00 1.500000e-01 0.0
0.000000e+00 1.750000e-01 0.0
2.500000e-02 1.750000e-01 0.0
5.000000e-02 1.750000e-01 0.0
7.500000e-02 1.750000e-01 0.0
1.000000e-01 1.750000e-01 0.0
1.250000e-01 1.750000e-01 0.0
1.500000e-01 1.750000e-01 0.0
1.750000e-01 1.750000e-01 0.0
2.000000e-01 1.750000e-01 0.0
2.250000e-01 1.750000e-01 0.0
2.500000e-01 1.750000e-01 0.0
2.750000e-01 1.750000e-01 0.0
3.000000e-01 1.750000e-01 0.0
3.250000e-01 1.750000e-01 0.0
3.500000e-01 1.750000e-01 0.0
3.750000e-01 1.750000e-01 0.0
4.000000e-01 1.750000e-01 0.0
4.250000e-01 1.750000e-01 0.0
4.500000e-01 1.750000e-01 0.0
4.750000e-01 1.750000e-01 0.0
5.000000e-01 1.750000e-01 0.0
5.250000e-01 1.750000e-01 0.0
5.500000e-01 1.750000e-01 0.0
5.750000e-01 1.750000e-01 0.0
6.000000e-01 1.750000e-01 0.0
6.250000e-01 1.750000e-01 0.0
6.500000e-01 1.750000e-01 0.0
6.750000e-01 1.750000e-01 0.0
7.000000e-01 1.750000e-01 0.0
7.250000e-01 1.750000e-01 0.0
7.500000e-01 1.750000e-01 0.0
7.750000e-01 1.750000e-01 0.0
8.000000e-01 1.750000e-01 0.0
8.250000e-01 1.750000e-01 0.0
8.500000e-01 1.750000e-01 0.0
8.750000e-01 1.750000e-01 0.0
9.000000e-01 1.750000e-01 0.0
9.250000e-01 1.750000e-01 0.0
9.500000e-01 1.750000e-01 0.0
9.750000e-01 1.750000e-01 0.0
1.000000e+00 1.750000e-01 0.0
[...]
CELL_DATA 1600
SCALARS Temperature double 1
LOOKUP_TABLE default
5.000000e-01
6.188366e-02
-3.961222e-02
-2.603575e-02
-2.989148e-03
4.671616e-03
2.944565e-03
1.600565e-04
-7.648646e-04
-4.409185e-04
5.095084e-06
1.424324e-04
7.509957e-05
-6.115559e-06
-2.856463e-05
-1.375400e-05
2.163641e-06
6.006766e-06
2.632115e-06
-6.372048e-07
-1.304662e-06
-5.173805e-07
1.757038e-07
2.899574e-07
1.032284e-07
-4.699442e-08
-6.553048e-08
-2.070947e-08
1.236674e-08
1.499418e-08
4.140651e-09
-3.223378e-09
-3.462357e-09
-8.169008e-10
8.350311e-10
8.048723e-10
1.570490e-10
-2.161867e-10
-1.869666e-10
-1.959048e-11
9.381163e-01
5.000000e-01
1.358050e-01
-2.328141e-02
-4.225380e-02
-1.681271e-02
1.921546e-03
5.544789e-03
2.382411e-03
-3.734030e-04
-9.332710e-04
-3.910129e-04
8.642762e-05
1.767047e-04
6.966662e-05
-2.092928e-05
-3.579001e-05
-1.302151e-05
5.158061e-06
7.568025e-06
2.502070e-06
-1.282911e-06
-1.647971e-06
-4.873174e-07
3.208992e-07
3.663923e-07
9.508129e-08
-8.057480e-08
-8.269527e-08
-1.836235e-08
2.028537e-08
1.887041e-08
3.456657e-09
-5.116402e-09
-4.340293e-09
-6.192505e-10
1.292382e-09
1.005747e-09
8.602695e-11
-2.793027e-10
1.039612e+00
8.641950e-01
5.000000e-01
1.695997e-01
-6.242363e-03
-4.667022e-02
-2.668077e-02
-2.957328e-03
5.866270e-03
4.214989e-03
6.057313e-04
-9.777465e-04
-7.505676e-04
-1.073820e-04
1.889254e-04
1.446251e-04
1.831404e-05
-3.963060e-05
-2.931869e-05
-2.961354e-06
8.739045e-06
6.149600e-06
4.243196e-07
-1.990673e-06
-1.320665e-06
-4.198027e-08
4.636132e-07
2.883452e-07
-2.970769e-09
-1.096736e-07
-6.367981e-08
3.660156e-09
2.623931e-08
1.417009e-08
-1.563905e-09
-6.329437e-09
-3.169868e-09
5.479557e-10
1.524623e-09
6.511473e-10
1.026036e+00
1.023281e+00
8.304003e-01
5.000000e-01
1.906250e-01
8.135609e-03
-4.699545e-02
-3.376551e-02
-8.140458e-03
4.913728e-03
5.466505e-03
1.754596e-03
-6.981705e-04
-9.852208e-04
-3.507679e-04
1.248053e-04
1.932548e-04
7.071849e-05
-2.581924e-05
-4.014529e-05
-1.449157e-05
5.833705e-06
8.674251e-06
3.008497e-06
-1.388676e-06
-1.927068e-06
-6.296039e-07
3.409332e-07
4.368049e-07
1.321365e-07
-8.526295e-08
-1.004826e-07
-2.766209e-08
2.156275e-08
2.336867e-08
5.743060e-09
-5.492397e-09
-5.488279e-09
-1.102156e-09
1.182756e-09
1.002989e+00
1.042254e+00
1.006242e+00
8.093750e-01
5.000000e-01
2.055563e-01
2.030218e-02
-4.544514e-02
-3.886002e-02
-1.307375e-02
3.215710e-03
6.155175e-03
2.873318e-03
-2.021803e-04
-1.071791e-03
-5.884817e-04
5.569646e-06
2.055775e-04
1.222457e-04
1.531910e-06
-4.235941e-05
-2.599686e-05
-3.750951e-07
9.184570e-06
5.644309e-06
2.057837e-08
-2.065254e-06
-1.245728e-06
2.026578e-08
4.767727e-07
2.783774e-07
-1.211496e-08
-1.122041e-07
-6.277584e-08
4.851043e-09
2.678331e-08
1.425684e-08
-1.707916e-09
-6.424862e-09
-2.972004e-09
9.953284e-01
1.016813e+00
1.046670e+00
9.918644e-01
7.944437e-01
5.000000e-01
2.170431e-01
3.080288e-02
-4.296209e-02
-4.253284e-02
-1.758541e-02
1.097546e-03
6.366840e-03
3.865781e-03
4.211032e-04
-1.019054e-03
-7.877540e-04
-1.460242e-04
1.813289e-04
1.633245e-04
3.681488e-05
-3.541833e-05
-3.487543e-05
-8.539669e-06
7.446478e-06
7.650131e-06
1.919203e-06
-1.655201e-06
-1.715382e-06
-4.245171e-07
3.833543e-07
3.913777e-07
9.283196e-08
-9.148081e-08
-9.051282e-08
-2.006880e-08
2.231263e-08
2.119026e-08
4.004408e-09
-4.676631e-09
9.970554e-01
9.980785e-01
1.026681e+00
1.046995e+00
9.796978e-01
7.829569e-01
5.000000e-01
2.263400e-01
4.002282e-02
-4.000473e-02
-4.516819e-02
-2.163972e-02
-1.239586e-03
6.194099e-03
4.690800e-03
1.105117e-03
-8.480506e-04
-9.315806e-04
-3.102744e-04
1.252678e-04
1.884280e-04
7.456808e-05
-2.039049e-05
-3.950921e-05
-1.721089e-05
3.692579e-06
8.575883e-06
3.933539e-06
-7.449043e-07
-1.916720e-06
-8.988639e-07
1.656377e-07
4.386579e-07
2.059586e-07
-3.977524e-08
-1.022980e-07
-4.737503e-08
1.021176e-08
2.405028e-08
1.004901e-08
9.998399e-01
9.944552e-01
1.002957e+00
1.033766e+00
1.045445e+00
9.691971e-01
7.736600e-01
5.000000e-01
2.341275e-01
4.823217e-02
-3.681373e-02
-4.702928e-02
-2.525336e-02
-3.670578e-03
5.719214e-03
5.336686e-03
1.802738e-03
-5.829705e-04
-1.013371e-03
-4.718305e-04
4.431352e-05
1.951866e-04
1.102221e-04
8.080555e-07
-3.916845e-05
-2.510660e-05
-1.565766e-06
8.210466e-06
5.716845e-06
5.335504e-07
-1.790255e-06
-1.311123e-06
-1.431557e-07
4.036506e-07
3.033856e-07
3.475428e-08
-9.358805e-08
-7.090297e-08
-7.045224e-09
1.905837e-08
1.000765e+00
9.976176e-01
9.941337e-01
1.008140e+00
1.038860e+00
1.042962e+00
9.599772e-01
7.658725e-01
5.000000e-01
2.408136e-01
5.562533e-02
-3.352271e-02
-4.830109e-02
-2.846183e-02
-6.117175e-03
5.010537e-03
5.807157e-03
2.481793e-03
-2.470206e-04
-1.033012e-03
-6.195674e-04
-5.412193e-05
1.834594e-04
1.403333e-04
2.594738e-05
-3.381747e-05
-3.123419e-05
-7.692373e-06
6.546118e-06
6.994796e-06
2.005834e-06
-1.333680e-06
-1.587283e-06
-4.966122e-07
2.854065e-07
3.654234e-07
1.200646e-07
-6.434169e-08
-8.442969e-08
-2.685180e-08
1.000441e+00
1.000373e+00
9.957850e-01
9.950863e-01
1.013074e+00
1.042533e+00
1.040005e+00
9.517678e-01
7.591864e-01
5.000000e-01
2.466611e-01
6.234601e-02
-3.020873e-02
-4.911685e-02
-3.130554e-02
-8.530464e-03
4.123276e-03
6.113552e-03
3.121076e-03
1.392515e-04
-9.941753e-04
-7.459561e-04
-1.630326e-04
1.545538e-04
1.625579e-04
5.282230e-05
-2.390787e-05
-3.492209e-05
-1.403690e-05
3.726830e-06
7.583525e-06
3.488825e-06
-5.896025e-07
-1.678085e-06
-8.447455e-07
9.576701e-08
3.791512e-07
2.026119e-07
-1.889657e-08
-7.639482e-08
9.999949e-01
1.000933e+00
9.993943e-01
9.945335e-01
9.967843e-01
1.017585e+00
1.045168e+00
1.036814e+00
9.443747e-01
7.533389e-01
5.000000e-01
2.518494e-01
6.850320e-02
-2.691723e-02
-4.957466e-02
-3.382397e-02
-1.088022e-02
3.101458e-03
6.270536e-03
3.707247e-03
5.584400e-04
-9.025615e-04
-8.463299e-04
-2.762476e-04
1.106315e-04
1.755086e-04
7.944604e-05
-1.019709e-05
-3.579996e-05
-2.000591e-05
-3.943582e-09
7.389688e-06
4.814098e-06
3.689218e-07
-1.560453e-06
-1.141327e-06
-1.445294e-07
3.399404e-07
2.659111e-07
4.350910e-08
9.998576e-01
1.000391e+00
1.000978e+00
9.982454e-01
9.938448e-01
9.989025e-01
1.021640e+00
1.047029e+00
1.033523e+00
9.376540e-01
7.481506e-01
5.000000e-01
2.565060e-01
7.418145e-02
-2.367518e-02
-4.974825e-02
-3.605346e-02
-1.314829e-02
1.980007e-03
6.293754e-03
4.232527e-03
9.962066e-04
-7.647785e-04
-9.182044e-04
-3.885868e-04
5.428406e-05
1.785743e-04
1.041446e-04
6.395809e-06
-3.375412e-05
-2.510265e-05
-4.348887e-06
6.400157e-06
5.842281e-06
1.452142e-06
-1.235199e-06
-1.349162e-06
-4.083770e-07
2.500907e-07
2.782244e-07
9.999249e-01
9.999136e-01
1.000751e+00
1.000698e+00
9.971267e-01
9.936332e-01
1.001240e+00
1.025253e+00
1.048301e+00
1.030209e+00
9.314968e-01
7.434940e-01
5.000000e-01
2.607251e-01
7.944761e-02
-2.049838e-02
-4.969392e-02
-3.802654e-02
-1.532439e-02
7.865714e-04
6.198581e-03
4.693019e-03
1.440976e-03
-5.876520e-04
-9.607070e-04
-4.958642e-04
-1.175797e-05
1.717410e-04
1.255876e-04
2.489684e-05
-2.887440e-05
-2.894419e-05
-8.993019e-06
4.666803e-06
6.470044e-06
2.565446e-06
-7.230967e-07
-1.443991e-06
-6.548068e-07
7.867438e-08
1.000006e+00
9.998233e-01
1.000107e+00
1.000985e+00
1.000202e+00
9.961342e-01
9.938059e-01
1.003671e+00
1.028462e+00
1.049117e+00
1.026917e+00
9.258186e-01
7.392749e-01
5.000000e-01
2.645779e-01
8.435548e-02
-1.739572e-02
-4.945536e-02
-3.977191e-02
-1.740345e-02
-4.569679e-04
5.999488e-03
5.087511e-03
1.883553e-03
-3.778148e-04
-9.741193e-04
-5.948147e-04
-8.481364e-05
1.554332e-04
1.427805e-04
4.435156e-05
-2.140177e-05
-3.126342e-05
-1.363028e-05
2.289830e-06
6.631684e-06
3.619676e-06
-6.577890e-08
-1.402432e-06
-8.225038e-07
1.000029e+00
9.999303e-01
9.998111e-01
1.000351e+00
1.001072e+00
9.995789e-01
9.953092e-01
9.942808e-01
1.006117e+00
1.031306e+00
1.049575e+00
1.023675e+00
9.205524e-01
7.354221e-01
5.000000e-01
2.681196e-01
8.894898e-02
-1.437172e-02
-4.906691e-02
-4.131473e-02
-1.938378e-02
-1.733289e-03
5.709756e-03
5.416618e-03
2.316749e-03
-1.414769e-04
-9.595238e-04
-6.829863e-04
-1.623680e-04
1.303802e-04
1.550359e-04
6.387362e-05
-1.168130e-05
-3.190154e-05
-1.798147e-05
-5.989061e-07
6.299573e-06
4.536154e-06
6.560800e-07
-1.066055e-06
1.000014e+00
1.000021e+00
9.998554e-01
9.998752e-01
1.000588e+00
1.001019e+00
9.988949e-01
9.946633e-01
9.949895e-01
1.008530e+00
1.033824e+00
1.049748e+00
1.020498e+00
9.156445e-01
7.318804e-01
5.000000e-01
2.713941e-01
9.326443e-02
-1.142811e-02
-4.855588e-02
-4.267701e-02
-2.126594e-02
-3.028678e-03
5.341385e-03
5.682169e-03
2.735029e-03
1.156898e-04
-9.185348e-04
-7.586226e-04
-2.421375e-04
9.750937e-05
1.619351e-04
8.267364e-05
-1.226268e-07
-3.079504e-05
-2.180590e-05
-3.851981e-06
5.498097e-06
5.184323e-06
1.446521e-06
9.999978e-01
1.000036e+00
9.999817e-01
9.998067e-01
9.999944e-01
1.000788e+00
1.000848e+00
9.981973e-01
9.941928e-01
9.958767e-01
1.010880e+00
1.036053e+00
1.049694e+00
1.017396e+00
9.110510e-01
7.286059e-01
5.000000e-01
2.744367e-01
9.733224e-02
-8.564849e-03
-4.794421e-02
-4.387800e-02
-2.305197e-02
-4.332283e-03
4.905109e-03
5.886778e-03
3.134217e-03
3.885952e-04
-8.530981e-04
-8.205486e-04
-3.221004e-04
5.786279e-05
1.632857e-04
1.000736e-04
1.283194e-05
-2.795845e-05
-2.491712e-05
-7.293552e-06
4.296048e-06
5.093686e-06
9.999940e-01
1.000013e+00
1.000040e+00
9.999293e-01
9.997944e-01
1.000146e+00
1.000932e+00
1.000583e+00
9.975182e-01
9.938864e-01
9.968985e-01
1.013148e+00
1.038027e+00
1.049455e+00
1.014372e+00
9.067356e-01
7.255633e-01
5.000000e-01
2.772760e-01
1.011781e-01
-5.780748e-03
-4.724967e-02
-4.493455e-02
-2.474478e-02
-5.635523e-03
4.410471e-03
6.033534e-03
3.511235e-03
6.727315e-04
-7.653438e-04
-8.680662e-04
-4.005053e-04
1.253403e-05
1.590809e-04
1.155098e-04
2.673654e-05
-2.347371e-05
-2.721257e-05
-1.052030e-05
2.050417e-06
9.999974e-01
9.999948e-01
1.000029e+00
1.000026e+00
9.998778e-01
9.998187e-01
1.000310e+00
1.001013e+00
1.000247e+00
9.968789e-01
9.937295e-01
9.980200e-01
1.015324e+00
1.039772e+00
1.049067e+00
1.011428e+00
9.026678e-01
7.227240e-01
5.000000e-01
2.799360e-01
1.048239e-01
-3.073908e-03
-4.648680e-02
-4.586143e-02
-2.634786e-02
-6.931632e-03
3.865913e-03
6.125789e-03
3.863896e-03
9.641480e-04
-6.574794e-04
-9.008618e-04
-4.758638e-04
-3.737779e-05
1.494609e-04
1.285287e-04
4.118604e-05
-1.758973e-05
-2.838522e-05
-1.303009e-05
1.000001e+00
9.999924e-01
1.000003e+00
1.000040e+00
9.999985e-01
9.998367e-01
9.998747e-01
1.000472e+00
1.001033e+00
9.998607e-01
9.962928e-01
9.937062e-01
9.992134e-01
1.017403e+00
1.041315e+00
1.048556e+00
1.008565e+00
8.988219e-01
7.200640e-01
5.000000e-01
2.824364e-01
1.082884e-01
-4.419948e-04
-4.566757e-02
-4.667164e-02
-2.786501e-02
-8.215294e-03
3.278883e-03
6.167003e-03
4.190725e-03
1.259413e-03
-5.317136e-04
-9.189281e-04
-5.469361e-04
-9.079853e-05
1.346625e-04
1.388314e-04
5.575772e-05
-1.095024e-05
-2.576164e-05
1.000001e+00
9.999975e-01
9.999913e-01
1.000014e+00
1.000042e+00
9.999632e-01
9.998116e-01
9.999557e-01
1.000620e+00
1.000994e+00
9.994416e-01
9.957675e-01
9.938014e-01
1.000457e+00
1.019384e+00
1.042677e+00
1.047944e+00
1.005781e+00
8.951761e-01
7.175636e-01
5.000000e-01
2.847942e-01
1.115881e-01
2.117568e-03
-4.480188e-02
-4.737662e-02
-2.930015e-02
-9.482358e-03
2.655942e-03
6.160642e-03
4.490815e-03
1.555568e-03
-3.902041e-04
-9.224987e-04
-6.127016e-04
-1.467195e-04
1.149835e-04
1.465154e-04
6.876094e-05
-8.586334e-07
1.000001e+00
1.000001e+00
9.999939e-01
9.999942e-01
1.000026e+00
1.000035e+00
9.999254e-01
9.998048e-01
1.000054e+00
1.000746e+00
1.000903e+00
9.990038e-01
9.953070e-01
9.940005e-01
1.001733e+00
1.021266e+00
1.043878e+00
1.047250e+00
1.003074e+00
8.917116e-01
7.152058e-01
5.000000e-01
2.870236e-01
1.147371e-01
4.607477e-03
-4.389799e-02
-4.798650e-02
-3.065723e-02
-1.072960e-02
2.002860e-03
6.110110e-03
4.763711e-03
1.850083e-03
-2.350249e-04
-9.119897e-04
-6.723124e-04
-2.043827e-04
9.137416e-05
1.507894e-04
7.674874e-05
9.999998e-01
1.000002e+00
9.999996e-01
9.999913e-01
1.000000e+00
1.000035e+00
1.000020e+00
9.998898e-01
9.998165e-01
1.000163e+00
1.000846e+00
1.000765e+00
9.985590e-01
9.949125e-01
9.942902e-01
1.003029e+00
1.023052e+00
1.044935e+00
1.046487e+00
1.000442e+00
8.884119e-01
7.129764e-01
5.000000e-01
2.891370e-01
1.177478e-01
7.030464e-03
-4.296282e-02
-4.851024e-02
-3.194015e-02
-1.195457e-02
1.324706e-03
6.018696e-03
5.009314e-03
2.140812e-03
-6.816472e-05
-8.878598e-04
-7.253236e-04
-2.630431e-04
6.709871e-05
1.379318e-04
9.999997e-01
1.000000e+00
1.000002e+00
9.999970e-01
9.999908e-01
1.000009e+00
1.000040e+00
9.999992e-01
9.998597e-01
9.998454e-01
1.000276e+00
1.000918e+00
1.000588e+00
9.981164e-01
9.945834e-01
9.946586e-01
1.004332e+00
1.024745e+00
1.045861e+00
1.045668e+00
9.978824e-01
8.852629e-01
7.108630e-01
5.000000e-01
2.911450e-01
1.206313e-01
9.389237e-03
-4.200217e-02
-4.895581e-02
-3.315271e-02
-1.315541e-02
6.259364e-04
5.889544e-03
5.227817e-03
2.425903e-03
1.085658e-04
-8.504818e-04
-7.731131e-04
-3.152003e-04
2.770878e-05
9.999999e-01
9.999997e-01
1.000001e+00
1.000001e+00
9.999944e-01
9.999926e-01
1.000017e+00
1.000039e+00
9.999741e-01
9.998374e-01
9.998894e-01
1.000389e+00
1.000961e+00
1.000378e+00
9.976833e-01
9.943178e-01
9.950949e-01
1.005636e+00
1.026348e+00
1.046672e+00
1.044802e+00
9.953925e-01
8.822522e-01
7.088550e-01
5.000000e-01
2.930570e-01
1.233974e-01
1.168645e-02
-4.102097e-02
-4.933031e-02
-3.429855e-02
-1.433075e-02
-8.954550e-05
5.725656e-03
5.419633e-03
2.703615e-03
2.944687e-04
-8.034449e-04
-8.114443e-04
-3.486847e-04
1.000000e+00
9.999996e-01
1.000000e+00
1.000002e+00
1.000000e+00
9.999923e-01
9.999963e-01
1.000025e+00
1.000034e+00
9.999472e-01
9.998245e-01
9.999457e-01
1.000496e+00
1.000974e+00
1.000141e+00
9.972650e-01
9.941132e-01
9.955895e-01
1.006932e+00
1.027865e+00
1.047377e+00
1.043898e+00
9.929695e-01
8.793687e-01
7.069430e-01
5.000000e-01
2.948809e-01
1.260546e-01
1.392467e-02
-4.002338e-02
-4.964007e-02
-3.538118e-02
-1.547964e-02
-8.183304e-04
5.529992e-03
5.584833e-03
2.973715e-03
4.879731e-04
-7.591213e-04
-7.772095e-04
1.000000e+00
9.999999e-01
9.999995e-01
1.000001e+00
1.000002e+00
9.999981e-01
9.999914e-01
1.000002e+00
1.000031e+00
1.000024e+00
9.999206e-01
9.998214e-01
1.000012e+00
1.000595e+00
1.000960e+00
9.998843e-01
9.968658e-01
9.939665e-01
9.961341e-01
1.008215e+00
1.029300e+00
1.047987e+00
1.042963e+00
9.906108e-01
8.766026e-01
7.051191e-01
5.000000e-01
2.966240e-01
1.286108e-01
1.610636e-02
-3.901293e-02
-4.989078e-02
-3.640391e-02
-1.660150e-02
-1.557198e-03
5.304956e-03
5.723130e-03
3.243233e-03
6.545142e-04
-6.275785e-04
1.000000e+00
1.000000e+00
9.999997e-01
9.999997e-01
1.000001e+00
1.000002e+00
9.999961e-01
9.999918e-01
1.000008e+00
1.000035e+00
1.000010e+00
9.998959e-01
9.998283e-01
1.000085e+00
1.000683e+00
1.000919e+00
9.996114e-01
9.964888e-01
9.938742e-01
9.967211e-01
1.009482e+00
1.030657e+00
1.048510e+00
1.042002e+00
9.883136e-01
8.739454e-01
7.033760e-01
5.000000e-01
2.982927e-01
1.310729e-01
1.823391e-02
-3.799266e-02
-5.008750e-02
-3.736997e-02
-1.769599e-02
-2.302598e-03
5.048316e-03
5.851090e-03
3.477582e-03
8.061342e-04
1.000000e+00
1.000000e+00
1.000000e+00
9.999996e-01
1.000000e+00
1.000002e+00
1.000001e+00
9.999943e-01
9.999935e-01
1.000014e+00
1.000036e+00
9.999936e-01
9.998744e-01
9.998446e-01
1.000162e+00
1.000759e+00
1.000853e+00
9.993273e-01
9.961361e-01
9.938330e-01
9.973441e-01
1.010730e+00
1.031940e+00
1.048956e+00
1.041021e+00
9.860753e-01
8.713892e-01
7.017073e-01
5.000000e-01
2.998925e-01
1.334473e-01
2.030955e-02
-3.696511e-02
-5.023473e-02
-3.828298e-02
-1.876049e-02
-3.059056e-03
4.772060e-03
5.988714e-03
3.467668e-03
1.000000e+00
1.000000e+00
1.000000e+00
9.999999e-01
9.999995e-01
1.000000e+00
1.000002e+00
9.999995e-01
9.999930e-01
9.999963e-01
1.000020e+00
1.000034e+00
9.999751e-01
9.998572e-01
9.998696e-01
1.000242e+00
1.000821e+00
1.000765e+00
9.990359e-01
9.958093e-01
9.938394e-01
9.979971e-01
1.011955e+00
1.033153e+00
1.049330e+00
1.040023e+00
9.838936e-01
8.689271e-01
7.001075e-01
5.000000e-01
3.014284e-01
1.357396e-01
2.233528e-02
-3.593211e-02
-5.033778e-02
-3.914306e-02
-1.979574e-02
-3.845667e-03
4.605584e-03
5.667139e-03
1.000000e+00
1.000000e+00
1.000000e+00
1.000000e+00
9.999997e-01
9.999996e-01
1.000001e+00
1.000002e+00
9.999980e-01
9.999924e-01
1.000000e+00
1.000025e+00
1.000029e+00
9.999556e-01
9.998450e-01
9.999025e-01
1.000322e+00
1.000868e+00
1.000657e+00
9.987406e-01
9.955092e-01
9.938899e-01
9.986753e-01
1.013155e+00
1.034299e+00
1.049640e+00
1.039013e+00
9.817661e-01
8.665527e-01
6.985715e-01
5.000001e-01
3.029051e-01
1.379550e-01
2.431343e-02
-3.489636e-02
-5.040254e-02
-3.993797e-02
-2.087218e-02
-4.438478e-03
4.077504e-03
1.000000e+00
1.000000e+00
1.000000e+00
1.000000e+00
1.000000e+00
9.999996e-01
9.999998e-01
1.000001e+00
1.000001e+00
9.999965e-01
9.999926e-01
1.000004e+00
1.000029e+00
1.000021e+00
9.999361e-01
9.998381e-01
9.999421e-01
1.000401e+00
1.000901e+00
1.000532e+00
9.984444e-01
9.952363e-01
9.939813e-01
9.993741e-01
1.014331e+00
1.035381e+00
1.049891e+00
1.037993e+00
9.796904e-01
8.642605e-01
6.970945e-01
5.000004e-01
3.043259e-01
1.400994e-01
2.624777e-02
-3.386657e-02
-5.039606e-02
-4.076883e-02
-2.183951e-02
-4.747727e-03
1.000000e+00
1.000000e+00
1.000000e+00
1.000000e+00
1.000000e+00
9.999999e-01
9.999996e-01
1.000000e+00
1.000002e+00
1.000001e+00
9.999952e-01
9.999936e-01
1.000009e+00
1.000031e+00
1.000012e+00
9.999173e-01
9.998367e-01
9.999875e-01
1.000476e+00
1.000919e+00
1.000390e+00
9.981499e-01
9.949907e-01
9.941105e-01
1.000090e+00
1.015480e+00
1.036404e+00
1.050087e+00
1.036965e+00
9.776647e-01
8.620458e-01
6.956725e-01
5.000014e-01
3.056890e-01
1.421821e-01
2.811595e-02
-3.280032e-02
-5.034465e-02
-4.179346e-02
-2.132482e-02
1.000000e+00
1.000000e+00
1.000000e+00
1.000000e+00
1.000000e+00
1.000000e+00
9.999998e-01
9.999996e-01
1.000000e+00
1.000002e+00
9.999996e-01
9.999942e-01
9.999953e-01
1.000014e+00
1.000032e+00
1.000000e+00
9.998999e-01
9.998409e-01
1.000037e+00
1.000547e+00
1.000923e+00
1.000235e+00
9.978592e-01
9.947722e-01
9.942744e-01
1.000818e+00
1.016602e+00
1.037370e+00
1.050234e+00
1.035932e+00
9.756855e-01
8.599047e-01
6.943041e-01
5.000130e-01
3.070041e-01
1.442092e-01
2.987697e-02
-3.159317e-02
-5.110504e-02
-4.034420e-02
1.000000e+00
1.000000e+00
1.000000e+00
1.000000e+00
1.000000e+00
1.000000e+00
1.000000e+00
9.999997e-01
9.999997e-01
1.000001e+00
1.000002e+00
9.999985e-01
9.999935e-01
9.999977e-01
1.000018e+00
1.000031e+00
9.999872e-01
9.998845e-01
9.998505e-01
1.000091e+00
1.000613e+00
1.000912e+00
1.000068e+00
9.975741e-01
9.945803e-01
9.944699e-01
1.001557e+00
1.017696e+00
1.038284e+00
1.050338e+00
1.034896e+00
9.737444e-01
8.578226e-01
6.929525e-01
5.000541e-01
3.082693e-01
1.462572e-01
3.205336e-02
-3.136036e-02
-4.948479e-02
1.000000e+00
1.000000e+00
1.000000e+00
1.000000e+00
1.000000e+00
1.000000e+00
1.000000e+00
1.000000e+00
9.999996e-01
9.999999e-01
1.000001e+00
1.000001e+00
9.999974e-01
9.999934e-01
1.000001e+00
1.000022e+00
1.000028e+00
9.999733e-01
9.998715e-01
9.998653e-01
1.000147e+00
1.000672e+00
1.000888e+00
9.998916e-01
9.972967e-01
9.944154e-01
9.946944e-01
1.002301e+00
1.018758e+00
1.039144e+00
1.050409e+00
1.033887e+00
9.718828e-01
8.558463e-01
6.915197e-01
5.001290e-01
3.086889e-01
1.488281e-01
3.293036e-02
-3.079520e-02
1.000000e+00
1.000000e+00
1.000000e+00
1.000000e+00
1.000000e+00
1.000000e+00
1.000000e+00
1.000000e+00
9.999999e-01
9.999996e-01
1.000000e+00
1.000001e+00
1.000001e+00
9.999964e-01
9.999937e-01
1.000004e+00
1.000025e+00
1.000023e+00
9.999588e-01
9.998612e-01
9.998851e-01
1.000205e+00
1.000725e+00
1.000850e+00
9.997047e-01
9.970269e-01
9.942805e-01
9.949574e-01
1.003061e+00
1.019784e+00
1.039906e+00
1.050353e+00
1.032805e+00
9.701036e-01
8.543036e-01
6.905422e-01
5.015628e-01
3.083002e-01
1.531646e-01
2.637873e-02
1.000000e+00
1.000000e+00
1.000000e+00
1.000000e+00
1.000000e+00
1.000000e+00
1.000000e+00
1.000000e+00
1.000000e+00
9.999998e-01
9.999997e-01
1.000000e+00
1.000001e+00
1.000000e+00
9.999955e-01
9.999945e-01
1.000007e+00
1.000027e+00
1.000018e+00
9.999440e-01
9.998531e-01
9.999087e-01
1.000264e+00