# vtk DataFile Version 3.0
QUICK scheme
ASCII
DATASET STRUCTURED_GRID
DIMENSIONS 41 41 1
POINTS 1681 double
0.000000e+00 0.000000e+00 0.0
2.500000e-02 0.000000e+00 0.0
5.000000e-02 0.000000e+00 0.0
7.500000e-02 0.000000e+00 0.0
1.000000e-01 0.000000e+00 0.0
1.250000e-01 0.000000e+00 0.0
1.500000e-01 0.000000e+00 0.0
1.750000e-01 0.000000e+00 0.0
2.000000e-01 0.000000e+00 0.0
2.250000e-01 0.000000e+00 0.0
2.500000e-01 0.000000e+00 0.0
2.750000e-01 0.000000e+00 0.0
3.000000e-01 0.000000e+00 0.0
3.250000e-01 0.000000e+00 0.0
3.500000e-01 0.000000e+00 0.0
3.750000e-01 0.000000e+00 0.0
4.000000e-01 0.000000e+00 0.0
4.250000e-01 0.000000e+00 0.0
4.500000e-01 0.000000e+00 0.0
4.750000e-01 0.000000e+00 0.0
5.000000e-01 0.000000e+00 0.0
5.250000e-01 0.000000e+00 0.0
5.500000e-01 0.000000e+00 0.0
5.750000e-01 0.000000e+00 0.0
6.000000e-01 0.000000e+00 0.0
6.250000e-01 0.000000e+00 0.0
6.500000e-01 0.000000e+00 0.0
6.750000e-01 0.000000e+00 0.0
7.000000e-01 0.000000e+00 0.0
7.250000e-01 0.000000e+00 0.0
7.500000e-01 0.000000e+00 0.0
7.750000e-01 0.000000e+00 0.0
8.000000e-01 0.000000e+00 0.0
8.250000e-01 0.000000e+00 0.0
8.500000e-01 0.000000e+00 0.0
8.750000e-01 0.000000e+00 0.0
9.000000e-01 0.000000e+00 0.0
9.250000e-01 0.000000e+00 0.0
9.500000e-01 0.000000e+00 0.0
9.750000e-01 0.000000e+00 0.0
1.000000e+00 0.000000e+00 0.0
0.000000e+00 2.500000e-02 0.0
2.500000e-02 2.500000e-02 0.0
5.000000e-02 2.500000e-02 0.0
7.500000e-02 2.500000e-02 0.0
1.000000e-01 2.500000e-02 0.0
1.250000e-01 2.500000e-02 0.0
1.500000e-01 2.500000e-02 0.0
1.750000e-01 2.500000e-02 0.0
2.000000e-01 2.500000e-02 0.0
2.250000e-01 2.500000e-02 0.0
2.500000e-01 2.500000e-02 0.0
2.750000e-01 2.500000e-02 0.0
3.000000e-01 2.500000e-02 0.0
3.250000e-01 2.500000e-02 0.0
3.500000e-01 2.500000e-02 0.0
3.750000e-01 2.500000e-02 0.0
4.000000e-01 2.500000e-02 0.0
4.250000e-01 2.500000e-02 0.0
4.500000e-01 2.500000e-02 0.0
4.750000e-01 2.500000e-02 0.0
5.000000e-01 2.500000e-02 0.0
5.250000e-01 2.500000e-02 0.0
5.500000e-01 2.500000e-02 0.0
5.750000e-01 2.500000e-02 0.0
6.000000e-01 2.500000e-02 0.0
6.250000e-01 2.500000e-02 0.0
6.500000e-01 2.500000e-02 0.0
6.750000e-01 2.500000e-02 0.0
7.000000e-01 2.500000e-02 0.0
7.250000e-01 2.500000e-02 0.0
7.500000e-01 2.500000e-02 0.0
7.750000e-01 2.500000e-02 0.0
8.000000e-01 2.500000e-02 0.0
8.250000e-01 2.500000e-02 0.0
8.500000e-01 2.500000e-02 0.0
8.750000e-01 2.500000e-02 0.0
9.000000e-01 2.500000e-02 0.0
9.250000e-01 2.500000e-02 0.0
9.500000e-01 2.500000e-02 0.0
9.750000e-01 2.500000e-02 0.0
1.000000e+00 2.500000e-02 0.0
0.000000e+00 5.000000e-02 0.0
2.500000e-02 5.000000e-02 0.0
5.000000e-02 5.000000e-02 0.0
7.500000e-02 5.000000e-02 0.0
1.000000e-01 5.000000e-02 0.0
1.250000e-01 5.000000e-02 0.0
1.500000e-01 5.000000e-02 0.0
1.750000e-01 5.000000e-02 0.0
2.000000e-01 5.000000e-02 0.0
2.250000e-01 5.000000e-02 0.0
2.500000e-01 5.000000e-02 0.0
2.750000e-01 5.000000e-02 0.0
3.000000e-01 5.000000e-02 0.0
3.250000e-01 5.000000e-02 0.0
3.500000e-01 5.000000e-02 0.0
3.750000e-01 5.000000e-02 0.0
4.000000e-01 5.000000e-02 0.0
4.250000e-01 5.000000e-02 0.0
4.500000e-01 5.000000e-02 0.0
4.750000e-01 5.000000e-02 0.0
5.000000e-01 5.000000e-02 0.0
5.250000e-01 5.000000e-02 0.0
5.500000e-01 5.000000e-02 0.0
5.750000e-01 5.000000e-02 0.0
6.000000e-01 5.000000e-02 0.0
6.250000e-01 5.000000e-02 0.0
6.500000e-01 5.000000e-02 0.0
6.750000e-01 5.000000e-02 0.0
7.000000e-01 5.000000e-02 0.0
7.250000e-01 5.000000e-02 0.0
7.500000e-01 5.000000e-02 0.0
7.750000e-01 5.000000e-02 0.0
8.000000e-01 5.000000e-02 0.0
8.250000e-01 5.000000e-02 0.0
8.500000e-01 5.000000e-02 0.0
8.750000e-01 5.000000e-02 0.0
9.000000e-01 5.000000e-02 0.0
9.250000e-01 5.000000e-02 0.0
9.500000e-01 5.000000e-02 0.0
9.750000e-01 5.000000e-02 0.0
1.000000e+00 5.000000e-02 0.0
0.000000e+00 7.500000e-02 0.0
2.500000e-02 7.500000e-02 0.0
5.000000e-02 7.500000e-02 0.0
7.500000e-02 7.500000e-02 0.0
1.000000e-01 7.500000e-02 0.0
1.250000e-01 7.500000e-02 0.0
1.500000e-01 7.500000e-02 0.0
1.750000e-01 7.500000e-02 0.0
2.000000e-01 7.500000e-02 0.0
2.250000e-01 7.500000e-02 0.0
2.500000e-01 7.500000e-02 0.0
2.750000e-01 7.500000e-02 0.0
3.000000e-01 7.500000e-02 0.0
3.250000e-01 7.500000e-02 0.0
3.500000e-01 7.500000e-02 0.0
3.750000e-01 7.500000e-02 0.0
4.000000e-01 7.500000e-02 0.0
4.250000e-01 7.500000e-02 0.0
4.500000e-01 7.500000e-02 0.0
4.750000e-01 7.500000e-02 0.0
5.000000e-01 7.500000e-02 0.0
5.250000e-01 7.500000e-02 0.0
5.500000e-01 7.500000e-02 0.0
5.750000e-01 7.500000e-02 0.0
6.000000e-01 7.500000e-02 0.0
6.250000e-01 7.500000e-02 0.0
6.500000e-01 7.500000e-02 0.0
6.750000e-01 7.500000e-02 0.0
7.000000e-01 7.500000e-02 0.0
7.250000e-01 7.500000e-02 0.0
7.500000e-01 7.500000e-02 0.0
7.750000e-01 7.500000e-02 0.0
8.000000e-01 7.500000e-02 0.0
8.250000e-01 7.500000e-02 0.0
8.500000e-01 7.500000e-02 0.0
8.750000e-01 7.500000e-02 0.0
9.000000e-01 7.500000e-02 0.0
9.250000e-01 7.500000e-02 0.0
9.500000e-01 7.500000e-02 0.0
9.750000e-01 7.500000e-02 0.0
1.000000e+00 7.500000e-02 0.0
0.000000e+00 1.000000e-01 0.0
2.500000e-02 1.000000e-01 0.0
5.000000e-02 1.000000e-01 0.0
7.500000e-02 1.000000e-01 0.0
1.000000e-01 1.000000e-01 0.0
1.250000e-01 1.000000e-01 0.0
1.500000e-01 1.000000e-01 0.0
1.750000e-01 1.000000e-01 0.0
2.000000e-01 1.000000e-01 0.0
2.250000e-01 1.000000e-01 0.0
2.500000e-01 1.000000e-01 0.0
2.750000e-01 1.000000e-01 0.0
3.000000e-01 1.000000e-01 0.0
3.250000e-01 1.000000e-01 0.0
3.500000e-01 1.000000e-01 0.0
3.750000e-01 1.000000e-01 0.0
4.000000e-01 1.000000e-01 0.0
4.250000e-01 1.000000e-01 0.0
4.500000e-01 1.000000e-01 0.0
4.750000e-01 1.000000e-01 0.0
5.000000e-01 1.000000e-01 0.0
5.250000e-01 1.000000e-01 0.0
5.500000e-01 1.000000e-01 0.0
5.750000e-01 1.000000e-01 0.0
6.000000e-01 1.000000e-01 0.0
6.250000e-01 1.000000e-01 0.0
6.500000e-01 1.000000e-01 0.0
6.750000e-01 1.000000e-01 0.0
7.000000e-01 1.000000e-01 0.0
7.250000e-01 1.000000e-01 0.0
7.500000e-01 1.000000e-01 0.0
7.750000e-01 1.000000e-01 0.0
8.000000e-01 1.000000e-01 0.0
8.250000e-01 1.000000e-01 0.0
8.500000e-01 1.000000e-01 0.0
8.750000e-01 1.000000e-01 0.0
9.000000e-01 1.000000e-01 0.0
9.250000e-01 1.000000e-01 0.0
9.500000e-01 1.000000e-01 0.0
9.750000e-01 1.000000e-01 0.0
1.000000e+00 1.000000e-01 0.0
0.000000e+00 1.250000e-01 0.0
2.500000e-02 1.250000e-01 0.0
5.000000e-02 1.250000e-01 0.0
7.500000e-02 1.250000e-01 0.0
1.000000e-01 1.250000e-01 0.0
1.250000e-01 1.250000e-01 0.0
1.500000e-01 1.250000e-01 0.0
1.750000e-01 1.250000e-01 0.0
2.000000e-01 1.250000e-01 0.0
2.250000e-01 1.250000e-01 0.0
2.500000e-01 1.250000e-01 0.0
2.750000e-01 1.250000e-01 0.0
3.000000e-01 1.250000e-01 0.0
3.250000e-01 1.250000e-01 0.0
3.500000e-01 1.250000e-01 0.0
3.750000e-01 1.250000e-01 0.0
4.000000e-01 1.250000e-01 0.0
4.250000e-01 1.250000e-01 0.0
4.500000e-01 1.250000e-01 0.0
4.750000e-01 1.250000e-01 0.0
5.000000e-01 1.250000e-01 0.0
5.250000e-01 1.250000e-01 0.0
5.500000e-01 1.250000e-01 0.0
5.750000e-01 1.250000e-01 0.0
6.000000e-01 1.250000e-01 0.0
6.250000e-01 1.250000e-01 0.0
6.500000e-01 1.250000e-01 0.0
6.750000e-01 1.250000e-01 0.0
7.000000e-01 1.250000e-01 0.0
7.250000e-01 1.250000e-01 0.0
7.500000e-01 1.250000e-01 0.0
7.750000e-01 1.250000e-01 0.0
8.000000e-01 1.250000e-01 0.0
8.250000e-01 1.250000e-01 0.0
8.500000e-01 1.250000e-01 0.0
8.750000e-01 1.250000e-01 0.0
9.000000e-01 1.250000e-01 0.0
9.250000e-01 1.250000e-01 0.0
9.500000e-01 1.250000e-01 0.0
9.750000e-01 1.250000e-01 0.0
1.000000e+00 1.250000e-01 0.0
0.000000e+00 1.500000e-01 0.0
2.500000e-02 1.500000e-01 0.0
5.000000e-02 1.500000e-01 0.0
7.500000e-02 1.500000e-01 0.0
1.000000e-01 1.500000e-01 0.0
1.250000e-01 1.500000e-01 0.0
1.500000e-01 1.500000e-01 0.0
1.750000e-01 1.500000e-01 0.0
2.000000e-01 1.500000e-01 0.0
2.250000e-01 1.500000e-01 0.0
2.500000e-01 1.500000e-01 0.0
2.750000e-01 1.500000e-01 0.0
3.000000e-01 1.500000e-01 0.0
3.250000e-01 1.500000e-01 0.0
3.500000e-01 1.500000e-01 0.0
3.750000e-01 1.500000e-01 0.0
4.000000e-01 1.500000e-01 0.0
4.250000e-01 1.500000e-01 0.0
4.500000e-01 1.500000e-01 0.0
4.750000e-01 1.500000e-01 0.0
5.000000e-01 1.500000e-01 0.0
5.250000e-01 1.500000e-01 0.0
5.500000e-01 1.500000e-01 0.0
5.750000e-01 1.500000e-01 0.0
6.000000e-01 1.500000e-01 0.0
6.250000e-01 1.500000e-01 0.0
6.500000e-01 1.500000e-01 0.0
6.750000e-01 1.500000e-01 0.0
7.000000e-01 1.500000e-01 0.0
7.250000e-01 1.500000e-01 0.0
7.500000e-01 1.500000e-01 0.0
7.750000e-01 1.500000e-01 0.0
8.000000e-01 1.500000e-01 0.0
8.250000e-01 1.500000e-01 0.0
8.500000e-01 1.500000e-01 0.0
8.750000e-01 1.500000e-01 0.0
9.000000e-01 1.500000e-01 0.0
9.250000e-01 1.500000e-01 0.0
9.500000e-01 1.500000e-01 0.0
9.750000e-01 1.500000e-01 0.0
1.000000e+00 1.500000e-01 0.0
0.000000e+00 1.750000e-01 0.0
2.500000e-02 1.750000e-01 0.0
5.000000e-02 1.750000e-01 0.0
7.500000e-02 1.750000e-01 0.0
1.000000e-01 1.750000e-01 0.0
1.250000e-01 1.750000e-01 0.0
1.500000e-01 1.750000e-01 0.0
1.750000e-01 1.750000e-01 0.0
2.000000e-01 1.750000e-01 0.0
2.250000e-01 1.750000e-01 0.0
2.500000e-01 1.750000e-01 0.0
2.750000e-01 1.750000e-01 0.0
3.000000e-01 1.750000e-01 0.0
3.250000e-01 1.750000e-01 0.0
3.500000e-01 1.750000e-01 0.0
3.750000e-01 1.750000e-01 0.0
4.000000e-01 1.750000e-01 0.0
4.250000e-01 1.750000e-01 0.0
4.500000e-01 1.750000e-01 0.0
4.750000e-01 1.750000e-01 0.0
5.000000e-01 1.750000e-01 0.0
5.250000e-01 1.750000e-01 0.0
5.500000e-01 1.750000e-01 0.0
5.750000e-01 1.750000e-01 0.0
6.000000e-01 1.750000e-01 0.0
6.250000e-01 1.750000e-01 0.0
6.500000e-01 1.750000e-01 0.0
6.750000e-01 1.750000e-01 0.0
7.000000e-01 1.750000e-01 0.0
7.250000e-01 1.750000e-01 0.0
7.500000e-01 1.750000e-01 0.0
7.750000e-01 1.750000e-01 0.0
8.000000e-01 1.750000e-01 0.0
8.250000e-01 1.750000e-01 0.0
8.500000e-01 1.750000e-01 0.0
8.750000e-01 1.750000e-01 0.0
9.000000e-01 1.750000e-01 0.0
9.250000e-01 1.750000e-01 0.0
9.500000e-01 1.750000e-01 0.0
9.750000e-01 1.750000e-01 0.0
1.000000e+00 1.750000e-01 0.0
0.000000e+00 2.000000e-01 0.0
[...]
CELL_DATA 1600
SCALARS Temperature double 1
LOOKUP_TABLE default
5.000000e-01
2.250011e-01
1.317089e-01
9.125975e-02
6.963574e-02
5.624288e-02
4.711078e-02
4.047202e-02
3.542346e-02
3.145381e-02
2.825091e-02
2.561305e-02
2.340390e-02
2.152804e-02
1.991662e-02
1.851875e-02
1.729602e-02
1.621890e-02
1.526432e-02
1.441404e-02
1.365346e-02
1.297076e-02
1.235628e-02
1.180211e-02
1.130169e-02
1.084955e-02
1.044115e-02
1.007269e-02
9.740989e-03
9.443391e-03
9.177688e-03
8.942065e-03
8.735040e-03
8.555436e-03
8.402347e-03
8.275114e-03
8.173311e-03
8.096733e-03
8.045390e-03
8.019501e-03
7.749989e-01
5.000000e-01
3.471504e-01
2.587062e-01
2.037045e-01
1.669946e-01
1.409998e-01
1.217089e-01
1.068570e-01
9.508546e-02
8.553522e-02
7.763839e-02
7.100530e-02
6.535998e-02
6.050173e-02
5.628122e-02
5.258514e-02
4.932604e-02
4.643539e-02
4.385883e-02
4.155274e-02
3.948174e-02
3.761692e-02
3.593449e-02
3.441474e-02
3.304126e-02
3.180034e-02
3.068054e-02
2.967227e-02
2.876751e-02
2.795961e-02
2.724308e-02
2.661345e-02
2.606717e-02
2.560150e-02
2.521445e-02
2.490475e-02
2.467178e-02
2.451558e-02
2.443681e-02
8.682911e-01
6.528496e-01
5.000000e-01
3.948594e-01
3.215659e-01
2.689521e-01
2.299311e-01
2.000922e-01
1.766540e-01
1.578166e-01
1.423802e-01
1.295214e-01
1.186593e-01
1.093741e-01
1.013556e-01
9.437004e-02
8.823845e-02
8.282147e-02
7.800926e-02
7.371416e-02
6.986552e-02
6.640585e-02
6.328798e-02
6.047300e-02
5.792859e-02
5.562779e-02
5.354806e-02
5.167053e-02
4.997935e-02
4.846132e-02
4.710542e-02
4.590256e-02
4.484538e-02
4.392797e-02
4.314582e-02
4.249565e-02
4.197535e-02
4.158393e-02
4.132147e-02
4.118912e-02
9.087402e-01
7.412938e-01
6.051406e-01
5.000000e-01
4.199216e-01
3.585995e-01
3.109671e-01
2.733199e-01
2.430352e-01
2.182661e-01
1.977020e-01
1.804002e-01
1.656714e-01
1.530035e-01
1.420099e-01
1.323942e-01
1.239260e-01
1.164242e-01
1.097446e-01
1.037710e-01
9.840945e-02
9.358284e-02
8.922769e-02
8.529141e-02
8.173013e-02
7.850720e-02
7.559187e-02
7.295832e-02
7.058488e-02
6.845340e-02
6.654879e-02
6.485855e-02
6.337253e-02
6.208265e-02
6.098269e-02
6.006817e-02
5.933622e-02
5.878551e-02
5.841621e-02
5.822998e-02
9.303643e-01
7.962955e-01
6.784341e-01
5.800784e-01
5.000000e-01
4.352922e-01
3.828793e-01
3.400982e-01
3.048241e-01
2.754211e-01
2.506472e-01
2.295605e-01
2.114434e-01
1.957454e-01
1.820396e-01
1.699918e-01
1.593378e-01
1.498669e-01
1.414092e-01
1.338265e-01
1.270061e-01
1.208549e-01
1.152956e-01
1.102640e-01
1.057062e-01
1.015771e-01
9.783854e-02
9.445860e-02
9.141031e-02
8.867108e-02
8.622205e-02
8.404764e-02
8.213518e-02
8.047456e-02
7.905803e-02
7.788002e-02
7.693700e-02
7.622738e-02
7.575147e-02
7.551146e-02
9.437571e-01
8.330054e-01
7.310479e-01
6.414005e-01
5.647078e-01
5.000000e-01
4.456619e-01
3.999853e-01
3.614200e-01
3.286557e-01
3.006234e-01
2.764657e-01
2.554998e-01
2.371824e-01
2.210798e-01
2.068441e-01
1.941950e-01
1.829047e-01
1.727872e-01
1.636897e-01
1.554858e-01
1.480704e-01
1.413557e-01
1.352681e-01
1.297458e-01
1.247363e-01
1.201956e-01
1.160863e-01
1.123771e-01
1.090413e-01
1.060570e-01
1.034058e-01
1.010728e-01
9.904616e-02
9.731678e-02
9.587818e-02
9.472627e-02
9.385930e-02
9.327778e-02
9.298450e-02
9.528892e-01
8.590002e-01
7.700689e-01
6.890329e-01
6.171207e-01
5.543381e-01
5.000000e-01
4.531253e-01
4.126762e-01
3.776809e-01
3.472842e-01
3.207582e-01
2.974951e-01
2.769924e-01
2.588357e-01
2.426843e-01
2.282571e-01
2.153215e-01
2.036847e-01
1.931860e-01
1.836911e-01
1.750872e-01
1.672791e-01
1.601866e-01
1.537417e-01
1.478867e-01
1.425726e-01
1.377579e-01
1.334075e-01
1.294917e-01
1.259857e-01
1.228690e-01
1.201247e-01
1.177396e-01
1.157034e-01
1.140091e-01
1.126520e-01
1.116304e-01
1.109450e-01
1.105993e-01
9.595280e-01
8.782911e-01
7.999078e-01
7.266801e-01
6.599017e-01
6.000147e-01
5.468747e-01
5.000000e-01
4.587546e-01
4.224656e-01
3.904887e-01
3.622400e-01
3.372067e-01
3.149470e-01
2.950844e-01
2.773004e-01
2.613259e-01
2.469338e-01
2.339326e-01
2.221604e-01
2.114800e-01
2.017749e-01
1.929461e-01
1.849093e-01
1.775925e-01
1.709344e-01
1.648826e-01
1.593924e-01
1.544260e-01
1.499512e-01
1.459412e-01
1.423737e-01
1.392305e-01
1.364970e-01
1.341625e-01
1.322190e-01
1.306618e-01
1.294893e-01
1.287026e-01
1.283058e-01
9.645765e-01
8.931430e-01
8.233460e-01
7.569648e-01
6.951759e-01
6.385799e-01
5.873238e-01
5.412454e-01
5.000000e-01
4.631547e-01
4.302511e-01
4.008434e-01
3.745181e-01
3.509034e-01
3.296710e-01
3.105345e-01
2.932461e-01
2.775923e-01
2.633893e-01
2.504795e-01
2.387274e-01
2.280169e-01
2.182480e-01
2.093349e-01
2.012038e-01
1.937913e-01
1.870430e-01
1.809123e-01
1.753595e-01
1.703509e-01
1.658582e-01
1.618579e-01
1.583308e-01
1.552616e-01
1.526388e-01
1.504545e-01
1.487037e-01
1.473851e-01
1.465002e-01
1.460538e-01
9.685462e-01
9.049145e-01
8.421834e-01
7.817339e-01
7.245788e-01
6.713443e-01
6.223191e-01
5.775344e-01
5.368453e-01
5.000000e-01
4.666924e-01
4.365984e-01
4.093984e-01
3.847913e-01
3.625008e-01
3.422785e-01
3.239034e-01
3.071807e-01
2.919397e-01
2.780316e-01
2.653263e-01
2.537112e-01
2.430880e-01
2.333718e-01
2.244889e-01
2.163754e-01
2.089763e-01
2.022442e-01
1.961385e-01
1.906247e-01
1.856737e-01
1.812612e-01
1.773676e-01
1.739772e-01
1.710784e-01
1.686629e-01
1.667262e-01
1.652670e-01
1.642876e-01
1.637934e-01
9.717491e-01
9.144648e-01
8.576198e-01
8.022980e-01
7.493527e-01
6.993766e-01
6.527158e-01
6.095113e-01
5.697488e-01
5.333075e-01
5.000000e-01
4.696033e-01
4.418811e-01
4.165983e-01
3.935303e-01
3.724679e-01
3.532199e-01
3.356138e-01
3.194952e-01
3.047269e-01
2.911876e-01
2.787704e-01
2.673815e-01
2.569385e-01
2.473695e-01
2.386118e-01
2.306109e-01
2.233196e-01
2.166974e-01
2.107096e-01
2.053271e-01
2.005254e-01
1.962848e-01
1.925896e-01
1.894281e-01
1.867925e-01
1.846784e-01
1.830851e-01
1.820155e-01
1.814756e-01
9.743870e-01
9.223616e-01
8.704786e-01
8.195998e-01
7.704395e-01
7.235343e-01
6.792418e-01
6.377599e-01
5.991565e-01
5.634016e-01
5.303967e-01
5.000000e-01
4.720453e-01
4.463563e-01
4.227564e-01
4.010747e-01
3.811503e-01
3.628342e-01
3.459905e-01
3.304957e-01
3.162392e-01
3.031220e-01
2.910562e-01
2.799639e-01
2.697763e-01
2.604331e-01
2.518814e-01
2.440752e-01
2.369750e-01
2.305466e-01
2.247612e-01
2.195950e-01
2.150283e-01
2.110460e-01
2.076367e-01
2.047930e-01
2.025110e-01
2.007906e-01
1.996353e-01
1.990522e-01
9.765961e-01
9.289947e-01
8.813407e-01
8.343286e-01
7.885565e-01
7.445002e-01
7.025048e-01
6.627932e-01
6.254818e-01
5.906016e-01
5.581189e-01
5.279546e-01
5.000000e-01
4.741288e-01
4.502071e-01
4.280999e-01
4.076755e-01
3.888084e-01
3.713816e-01
3.552868e-01
3.404252e-01
3.267071e-01
3.140518e-01
3.023871e-01
2.916485e-01
2.817791e-01
2.727286e-01
2.644531e-01
2.569146e-01
2.500801e-01
2.439220e-01
2.384171e-01
2.335467e-01
2.292961e-01
2.256547e-01
2.226156e-01
2.201758e-01
2.183358e-01
2.170998e-01
2.164759e-01
9.784720e-01
9.346400e-01
8.906259e-01
8.469964e-01
8.042546e-01
7.628176e-01
7.230076e-01
6.850530e-01
6.490965e-01
6.152087e-01
5.834017e-01
5.536436e-01
5.258712e-01
5.000000e-01
4.759331e-01
4.535673e-01
4.327980e-01
4.135227e-01
3.956428e-01
3.790654e-01
3.637042e-01
3.494796e-01
3.363191e-01
3.241568e-01
3.129337e-01
3.025970e-01
2.930998e-01
2.844008e-01
2.764643e-01
2.692591e-01
2.627590e-01
2.569422e-01
2.517909e-01
2.472916e-01
2.434344e-01
2.402134e-01
2.376264e-01
2.356746e-01
2.343632e-01
2.337012e-01
9.800834e-01
9.394983e-01
8.986444e-01
8.579901e-01
8.179604e-01
7.789202e-01
7.411642e-01
7.049155e-01
6.703290e-01
6.374991e-01
6.064696e-01
5.772435e-01
5.497928e-01
5.240669e-01
5.000000e-01
4.775168e-01
4.565372e-01
4.369796e-01
4.187633e-01
4.018105e-01
3.860474e-01
3.714048e-01
3.578189e-01
3.452309e-01
3.335877e-01
3.228411e-01
3.129482e-01
3.038712e-01
2.955768e-01
2.880363e-01
2.812253e-01
2.751236e-01
2.697149e-01
2.649868e-01
2.609306e-01
2.575415e-01
2.548180e-01
2.527627e-01
2.513813e-01
2.506839e-01
9.814812e-01
9.437188e-01
9.056299e-01
8.676058e-01
8.300082e-01
7.931558e-01
7.573156e-01
7.226995e-01
6.894655e-01
6.577214e-01
6.275320e-01
5.989253e-01
5.719000e-01
5.464327e-01
5.224831e-01
5.000000e-01
4.789245e-01
4.591940e-01
4.407446e-01
4.235127e-01
4.074368e-01
3.924581e-01
3.785214e-01
3.655755e-01
3.535733e-01
3.424720e-01
3.322331e-01
3.228224e-01
3.142096e-01
3.063688e-01
2.992777e-01
2.929180e-01
2.872753e-01
2.823384e-01
2.781002e-01
2.745568e-01
2.717081e-01
2.695573e-01
2.681116e-01
2.673814e-01
9.827040e-01
9.474148e-01
9.117615e-01
8.760740e-01
8.406621e-01
8.058050e-01
7.717429e-01
7.386741e-01
7.067538e-01
6.760966e-01
6.467800e-01
6.188497e-01
5.923245e-01
5.672019e-01
5.434627e-01
5.210754e-01
4.999999e-01
4.801905e-01
4.615980e-01
4.441724e-01
4.278638e-01
4.126233e-01
3.984046e-01
3.851639e-01
3.728604e-01
3.614568e-01
3.509192e-01
3.412173e-01
3.323244e-01
3.242172e-01
3.168762e-01
3.102852e-01
3.044316e-01
2.993059e-01
2.949025e-01
2.912188e-01
2.882558e-01
2.860179e-01
2.845132e-01
2.837531e-01
9.837811e-01
9.506740e-01
9.171785e-01
8.835758e-01
8.501330e-01
8.170953e-01
7.846785e-01
7.530662e-01
7.224077e-01
6.928193e-01
6.643861e-01
6.371657e-01
6.111915e-01
5.864772e-01
5.630203e-01
5.408059e-01
5.198094e-01
4.999999e-01
4.813419e-01
4.637973e-01
4.473269e-01
4.318917e-01
4.174535e-01
4.039759e-01
3.914245e-01
3.797676e-01
3.689760e-01
3.590235e-01
3.498870e-01
3.415463e-01
3.339846e-01
3.271881e-01
3.211461e-01
3.158512e-01
3.112990e-01
3.074887e-01
3.044223e-01
3.021055e-01
3.005473e-01
2.997602e-01
9.847357e-01
9.535646e-01
9.219907e-01
8.902554e-01
8.585908e-01
8.272127e-01
7.963153e-01
7.660673e-01
7.366107e-01
7.080602e-01
6.805048e-01
6.540095e-01
6.286183e-01
6.043571e-01
5.812367e-01
5.592553e-01
5.384019e-01
5.186580e-01
4.999999e-01
4.824006e-01
4.658307e-01
4.502601e-01
4.356586e-01
4.219969e-01
4.092467e-01
3.973818e-01
3.863778e-01
3.762127e-01
3.668671e-01
3.583242e-01
3.505697e-01
3.435925e-01
3.373839e-01
3.319385e-01
3.272538e-01
3.233301e-01
3.201710e-01
3.177833e-01
3.161770e-01
3.153654e-01
9.855860e-01
9.561412e-01
9.262858e-01
8.962290e-01
8.661734e-01
8.363102e-01
8.068139e-01
7.778395e-01
7.495205e-01
7.219684e-01
6.952731e-01
6.695042e-01
6.447131e-01
6.209345e-01
5.981894e-01
5.764872e-01
5.558274e-01
5.362026e-01
5.175993e-01
4.999999e-01
4.833843e-01
4.677304e-01
4.530154e-01
4.392167e-01
4.263122e-01
4.142807e-01
4.031027e-01
3.927604e-01
3.832381e-01
3.745222e-01
3.666014e-01
3.594669e-01
3.531126e-01
3.475348e-01
3.427329e-01
3.387087e-01
3.354672e-01
3.330163e-01
3.313670e-01
3.305336e-01
9.863465e-01
9.584473e-01
9.301345e-01
9.015905e-01
8.729938e-01
8.445141e-01
8.163088e-01
7.885199e-01
7.612725e-01
7.346736e-01
7.088124e-01
6.837607e-01
6.595747e-01
6.362957e-01
6.139525e-01
5.925631e-01
5.721361e-01
5.526730e-01
5.341691e-01
5.166156e-01
4.999999e-01
4.843077e-01
4.695229e-01
4.556292e-01
4.426100e-01
4.304494e-01
4.191324e-01
4.086454e-01
3.989762e-01
3.901146e-01
3.820521e-01
3.747825e-01
3.683021e-01
3.626091e-01
3.577046e-01
3.535921e-01
3.502780e-01
3.477713e-01
3.460840e-01
3.452313e-01
9.870292e-01
9.605183e-01
9.335941e-01
9.064171e-01
8.791451e-01
8.519296e-01
8.249128e-01
7.982251e-01
7.719830e-01
7.462888e-01
7.212295e-01
6.968779e-01
6.732928e-01
6.505203e-01
6.285951e-01
6.075418e-01
5.873766e-01
5.681082e-01
5.497397e-01
5.322695e-01
5.156922e-01
4.999999e-01
4.851831e-01
4.712309e-01
4.581323e-01
4.458760e-01
4.344516e-01
4.238493e-01
4.140606e-01
4.050783e-01
3.968969e-01
3.895129e-01
3.829246e-01
3.771325e-01
3.721392e-01
3.679500e-01
3.645726e-01
3.620170e-01
3.602965e-01
3.594268e-01
9.876437e-01
9.623831e-01
9.367120e-01
9.107723e-01
8.847044e-01
8.586443e-01
8.327209e-01
8.070538e-01
7.817519e-01
7.569119e-01
7.326184e-01
7.089437e-01
6.859481e-01
6.636808e-01
6.421810e-01
6.214785e-01
6.015953e-01
5.825464e-01
5.643412e-01
5.469844e-01
5.304769e-01
5.148168e-01
4.999999e-01
4.860209e-01
4.728736e-01
4.605512e-01
4.490474e-01
4.383563e-01
4.284727e-01
4.193925e-01
4.111133e-01
4.036337e-01
3.969545e-01
3.910780e-01
3.860089e-01
3.817537e-01
3.783216e-01
3.757238e-01
3.739744e-01
3.730899e-01
9.881979e-01
9.640655e-01
9.395270e-01
9.147086e-01
8.897360e-01
8.647318e-01
8.398134e-01
8.150906e-01
7.906650e-01
7.666281e-01
7.430614e-01
7.200360e-01
6.976128e-01
6.758431e-01
6.547689e-01
6.344244e-01
6.148360e-01
5.960240e-01
5.780030e-01
5.607831e-01
5.443706e-01
5.287689e-01
5.139789e-01
4.999999e-01
4.868302e-01
4.744674e-01
4.629089e-01
4.521524e-01
4.421959e-01
4.330385e-01
4.246803e-01
4.171224e-01
4.103677e-01
4.044206e-01
3.992874e-01
3.949763e-01
3.914974e-01
3.888635e-01
3.870893e-01
3.861922e-01
9.886983e-01
9.655852e-01
9.420714e-01
9.182698e-01
8.942937e-01
8.702542e-01
8.462583e-01
8.224074e-01
7.987961e-01
7.755111e-01
7.526304e-01
7.302236e-01
7.083514e-01
6.870662e-01
6.664122e-01
6.464266e-01
6.271395e-01
6.085753e-01
5.907531e-01
5.736877e-01
5.573898e-01
5.418675e-01
5.271263e-01
5.131696e-01
4.999999e-01
4.876186e-01
4.760268e-01
4.652253e-01
4.552155e-01
4.459991e-01
4.375788e-01
4.299581e-01
4.231420e-01
4.171367e-01
4.119502e-01
4.075921e-01
4.040740e-01
4.014095e-01
3.996143e-01
3.987065e-01
9.891504e-01
9.669587e-01
9.443722e-01
9.214928e-01
8.984229e-01
8.752637e-01
8.521133e-01
8.290655e-01
8.062086e-01
7.836246e-01
7.613881e-01
7.395668e-01
7.182208e-01
6.974029e-01
6.771588e-01
6.575278e-01
6.385431e-01
6.202322e-01
6.026181e-01
5.857192e-01
5.695504e-01
5.541238e-01
5.394486e-01
5.255324e-01
5.123812e-01
4.999999e-01
4.883929e-01
4.775642e-01
4.675179e-01
4.582585e-01
4.497911e-01
4.421213e-01
4.352562e-01
4.292039e-01
4.239738e-01
4.195770e-01
4.160263e-01
4.133363e-01
4.115235e-01
4.106067e-01
9.895588e-01
9.681996e-01
9.464519e-01
9.244081e-01
9.021614e-01
8.798044e-01
8.574273e-01
8.351173e-01
8.129570e-01
7.910237e-01
7.693890e-01
7.481185e-01
7.272713e-01
7.069001e-01
6.870516e-01
6.677667e-01
6.490807e-01
6.310238e-01
6.136221e-01
5.968971e-01
5.808674e-01
5.655482e-01
5.509524e-01
5.370909e-01
5.239730e-01
5.116069e-01
4.999999e-01
4.891589e-01
4.790906e-01
4.698020e-01
4.613004e-01
4.535937e-01
4.466907e-01
4.406012e-01
4.353361e-01
4.309080e-01
4.273307e-01
4.246197e-01
4.227925e-01
4.218682e-01
9.899273e-01
9.693194e-01
9.483295e-01
9.270416e-01
9.055414e-01
8.839136e-01
8.622420e-01
8.406075e-01
8.190876e-01
7.977558e-01
7.766803e-01
7.559247e-01
7.355467e-01
7.155990e-01
6.961286e-01
6.771775e-01
6.587826e-01
6.409763e-01
6.237871e-01
6.072394e-01
5.913544e-01
5.761505e-01
5.616435e-01
5.478474e-01
5.347745e-01
5.224356e-01
5.108409e-01
4.999999e-01
4.899217e-01
4.806157e-01
4.720910e-01
4.643578e-01
4.574264e-01
4.513083e-01
4.460160e-01
4.415630e-01
4.379643e-01
4.352364e-01
4.333975e-01
4.324672e-01
9.902590e-01
9.703277e-01
9.500206e-01
9.294151e-01
9.085896e-01
8.876229e-01
8.665924e-01
8.455739e-01
8.246404e-01
8.038614e-01
7.833025e-01
7.630249e-01
7.430853e-01
7.235356e-01
7.044230e-01
6.857902e-01
6.676755e-01
6.501129e-01
6.331327e-01
6.167617e-01
6.010236e-01
5.859392e-01
5.715271e-01
5.578039e-01
5.447842e-01
5.324818e-01
5.209091e-01
5.100780e-01
4.999999e-01
4.906860e-01
4.821477e-01
4.743967e-01
4.674452e-01
4.613060e-01
4.559928e-01
4.515206e-01
4.479052e-01
4.451640e-01
4.433157e-01
4.423806e-01
9.905566e-01
9.712325e-01
9.515387e-01
9.315466e-01
9.113289e-01
8.909586e-01
8.705082e-01
8.500487e-01
8.296490e-01
8.093752e-01
7.892903e-01
7.694533e-01
7.499197e-01
7.307408e-01
7.119635e-01
6.936311e-01
6.757826e-01
6.584535e-01
6.416756e-01
6.254776e-01
6.098852e-01
5.949215e-01
5.806072e-01
5.669612e-01
5.540006e-01
5.417412e-01
5.301977e-01
5.193841e-01
5.093137e-01
4.999999e-01
4.914556e-01
4.836941e-01
4.767293e-01
4.705752e-01
4.652469e-01
4.607603e-01
4.571322e-01
4.543807e-01
4.525251e-01
4.515863e-01
9.908223e-01
9.720404e-01
9.528946e-01
9.334512e-01
9.137779e-01
8.939429e-01
8.740142e-01
8.540587e-01
8.341417e-01
8.143262e-01
7.946728e-01
7.752387e-01
7.560778e-01
7.372408e-01
7.187745e-01
7.007222e-01
6.831236e-01
6.660152e-01
6.494301e-01
6.333984e-01
6.179477e-01
6.031028e-01
5.888865e-01
5.753195e-01
5.624210e-01
5.502087e-01
5.386993e-01
5.279087e-01
5.178520e-01
5.085442e-01
4.999999e-01
4.922339e-01
4.852613e-01
4.790976e-01
4.737588e-01
4.692618e-01
4.656243e-01
4.628651e-01
4.610040e-01
4.600623e-01
9.910579e-01
9.727569e-01
9.540974e-01
9.351414e-01
9.159523e-01
8.965941e-01
8.771310e-01
8.576262e-01
8.381420e-01
8.187387e-01
7.994745e-01
7.804049e-01
7.615827e-01
7.430577e-01
7.248762e-01
7.070818e-01
6.897146e-01
6.728117e-01
6.564073e-01
6.405329e-01
6.252172e-01
6.104868e-01
5.963660e-01
5.828774e-01
5.700416e-01
5.578784e-01
5.464060e-01
5.356419e-01
5.256030e-01
5.163056e-01
5.077658e-01
4.999998e-01
4.930239e-01
4.868547e-01
4.815092e-01
4.770051e-01
4.733610e-01
4.705962e-01
4.687312e-01
4.677873e-01
9.912650e-01
9.733865e-01
9.551546e-01
9.366274e-01
9.178648e-01
8.989271e-01
8.798753e-01
8.607695e-01
8.416691e-01
8.226323e-01
8.037151e-01
7.849715e-01
7.664532e-01
7.482089e-01
7.302850e-01
7.127246e-01
6.955683e-01
6.788537e-01
6.626159e-01
6.468872e-01
6.316977e-01
6.170752e-01
6.030453e-01
5.896320e-01
5.768578e-01
5.647435e-01
5.533090e-01
5.425733e-01
5.325545e-01
5.232704e-01
5.147384e-01
5.069758e-01
4.999998e-01
4.938283e-01
4.884790e-01
4.839705e-01
4.803220e-01
4.775534e-01
4.756855e-01
4.747402e-01
9.914446e-01
9.739328e-01
9.560720e-01
9.379173e-01
9.195254e-01
9.009538e-01
8.822604e-01
8.635029e-01
8.447383e-01
8.260227e-01
8.074103e-01
7.889538e-01
7.707038e-01
7.527083e-01
7.350131e-01
7.176614e-01
7.006939e-01
6.841486e-01
6.680613e-01
6.524650e-01
6.373907e-01
6.228673e-01
6.089217e-01
5.955791e-01
5.828631e-01
5.707958e-01
5.593986e-01
5.486914e-01
5.386937e-01
5.294245e-01
5.209021e-01
5.131450e-01
5.061714e-01
4.999998e-01
4.946490e-01
4.901381e-01
4.864869e-01
4.837159e-01
4.818462e-01
4.808998e-01
9.915976e-01
9.743985e-01
9.568542e-01
9.390173e-01
9.209419e-01
9.026832e-01
8.842965e-01
8.658375e-01
8.473611e-01
8.289215e-01
8.105718e-01
7.923631e-01
7.743452e-01
7.565654e-01
7.390692e-01
7.218996e-01
7.050973e-01
6.887008e-01
6.727460e-01
6.572669e-01
6.422952e-01
6.278605e-01
6.139909e-01
6.007123e-01
5.880496e-01
5.760259e-01
5.646636e-01
5.539838e-01
5.440069e-01
5.347528e-01
5.262409e-01
5.184905e-01
5.115207e-01
5.053507e-01
4.999998e-01
4.954880e-01
4.918354e-01
4.890629e-01
4.871920e-01
4.862450e-01
9.917249e-01
9.747855e-01
9.575043e-01
9.399318e-01
9.221199e-01
9.041218e-01
8.859909e-01
8.677810e-01
8.495454e-01
8.313370e-01
8.132074e-01
7.952069e-01
7.773842e-01
7.597864e-01
7.424584e-01
7.254430e-01
7.087810e-01
6.925111e-01
6.766697e-01
6.612911e-01
6.464076e-01
6.320497e-01
6.182460e-01
6.050235e-01
5.924077e-01
5.804227e-01
5.690917e-01
5.584368e-01
5.484791e-01
5.392394e-01
5.307379e-01
5.229946e-01
5.160292e-01
5.098615e-01
5.045117e-01
4.999998e-01
4.963467e-01
4.935735e-01
4.917020e-01
4.907546e-01
9.918267e-01
9.750952e-01
9.580246e-01
9.406637e-01
9.230629e-01
9.052737e-01
8.873480e-01
8.693381e-01
8.512962e-01
8.332737e-01
8.153215e-01
7.974889e-01
7.798241e-01
7.623735e-01
7.451818e-01
7.282917e-01
7.117440e-01
6.955775e-01
6.798288e-01
6.645326e-01
6.497218e-01
6.354272e-01
6.216782e-01
6.085023e-01
5.959258e-01
5.839734e-01
5.726691e-01
5.620354e-01
5.520945e-01
5.428675e-01
5.343754e-01
5.266387e-01
5.196777e-01
5.135127e-01
5.081643e-01
5.036530e-01
4.999998e-01
4.972264e-01
4.953545e-01
4.944070e-01
9.919033e-01
9.753282e-01
9.584160e-01
9.412145e-01
9.237726e-01
9.061406e-01
8.883696e-01
8.705106e-01
8.526148e-01
8.347329e-01
8.169147e-01
7.992093e-01
7.816641e-01
7.643253e-01
7.472372e-01
7.304425e-01
7.139819e-01
6.978943e-01
6.822165e-01
6.669835e-01
6.522285e-01
6.379827e-01
6.242759e-01
6.111362e-01
5.985903e-01
5.866634e-01
5.753800e-01
5.647633e-01
5.548356e-01
5.456190e-01
5.371346e-01
5.294034e-01
5.224463e-01
5.162838e-01
5.109368e-01
5.064262e-01
5.027733e-01
4.999998e-01
4.981279e-01
4.971803e-01
9.919546e-01
9.754844e-01
9.586785e-01
9.415837e-01
9.242485e-01
9.067222e-01
8.890549e-01
8.712973e-01
8.534997e-01
8.357123e-01
8.179844e-01
8.003646e-01
7.829001e-01