# vtk DataFile Version 3.0
QUICK北邊界QUICK南邊界QUICK,Pe=infinite,Grid 81x81,000176.vtk
ASCII
DATASET STRUCTURED_GRID
DIMENSIONS 81 81 1
POINTS 6561 double
0.000000e+00 0.000000e+00 0.0
1.250000e-02 0.000000e+00 0.0
2.500000e-02 0.000000e+00 0.0
3.750000e-02 0.000000e+00 0.0
5.000000e-02 0.000000e+00 0.0
6.250000e-02 0.000000e+00 0.0
7.500000e-02 0.000000e+00 0.0
8.750000e-02 0.000000e+00 0.0
1.000000e-01 0.000000e+00 0.0
1.125000e-01 0.000000e+00 0.0
1.250000e-01 0.000000e+00 0.0
1.375000e-01 0.000000e+00 0.0
1.500000e-01 0.000000e+00 0.0
1.625000e-01 0.000000e+00 0.0
1.750000e-01 0.000000e+00 0.0
1.875000e-01 0.000000e+00 0.0
2.000000e-01 0.000000e+00 0.0
2.125000e-01 0.000000e+00 0.0
2.250000e-01 0.000000e+00 0.0
2.375000e-01 0.000000e+00 0.0
2.500000e-01 0.000000e+00 0.0
2.625000e-01 0.000000e+00 0.0
2.750000e-01 0.000000e+00 0.0
2.875000e-01 0.000000e+00 0.0
3.000000e-01 0.000000e+00 0.0
3.125000e-01 0.000000e+00 0.0
3.250000e-01 0.000000e+00 0.0
3.375000e-01 0.000000e+00 0.0
3.500000e-01 0.000000e+00 0.0
3.625000e-01 0.000000e+00 0.0
3.750000e-01 0.000000e+00 0.0
3.875000e-01 0.000000e+00 0.0
4.000000e-01 0.000000e+00 0.0
4.125000e-01 0.000000e+00 0.0
4.250000e-01 0.000000e+00 0.0
4.375000e-01 0.000000e+00 0.0
4.500000e-01 0.000000e+00 0.0
4.625000e-01 0.000000e+00 0.0
4.750000e-01 0.000000e+00 0.0
4.875000e-01 0.000000e+00 0.0
5.000000e-01 0.000000e+00 0.0
5.125000e-01 0.000000e+00 0.0
5.250000e-01 0.000000e+00 0.0
5.375000e-01 0.000000e+00 0.0
5.500000e-01 0.000000e+00 0.0
5.625000e-01 0.000000e+00 0.0
5.750000e-01 0.000000e+00 0.0
5.875000e-01 0.000000e+00 0.0
6.000000e-01 0.000000e+00 0.0
6.125000e-01 0.000000e+00 0.0
6.250000e-01 0.000000e+00 0.0
6.375000e-01 0.000000e+00 0.0
6.500000e-01 0.000000e+00 0.0
6.625000e-01 0.000000e+00 0.0
6.750000e-01 0.000000e+00 0.0
6.875000e-01 0.000000e+00 0.0
7.000000e-01 0.000000e+00 0.0
7.125000e-01 0.000000e+00 0.0
7.250000e-01 0.000000e+00 0.0
7.375000e-01 0.000000e+00 0.0
7.500000e-01 0.000000e+00 0.0
7.625000e-01 0.000000e+00 0.0
7.750000e-01 0.000000e+00 0.0
7.875000e-01 0.000000e+00 0.0
8.000000e-01 0.000000e+00 0.0
8.125000e-01 0.000000e+00 0.0
8.250000e-01 0.000000e+00 0.0
8.375000e-01 0.000000e+00 0.0
8.500000e-01 0.000000e+00 0.0
8.625000e-01 0.000000e+00 0.0
8.750000e-01 0.000000e+00 0.0
8.875000e-01 0.000000e+00 0.0
9.000000e-01 0.000000e+00 0.0
9.125000e-01 0.000000e+00 0.0
9.250000e-01 0.000000e+00 0.0
9.375000e-01 0.000000e+00 0.0
9.500000e-01 0.000000e+00 0.0
9.625000e-01 0.000000e+00 0.0
9.750000e-01 0.000000e+00 0.0
9.875000e-01 0.000000e+00 0.0
1.000000e+00 0.000000e+00 0.0
0.000000e+00 1.250000e-02 0.0
1.250000e-02 1.250000e-02 0.0
2.500000e-02 1.250000e-02 0.0
3.750000e-02 1.250000e-02 0.0
5.000000e-02 1.250000e-02 0.0
6.250000e-02 1.250000e-02 0.0
7.500000e-02 1.250000e-02 0.0
8.750000e-02 1.250000e-02 0.0
1.000000e-01 1.250000e-02 0.0
1.125000e-01 1.250000e-02 0.0
1.250000e-01 1.250000e-02 0.0
1.375000e-01 1.250000e-02 0.0
1.500000e-01 1.250000e-02 0.0
1.625000e-01 1.250000e-02 0.0
1.750000e-01 1.250000e-02 0.0
1.875000e-01 1.250000e-02 0.0
2.000000e-01 1.250000e-02 0.0
2.125000e-01 1.250000e-02 0.0
2.250000e-01 1.250000e-02 0.0
2.375000e-01 1.250000e-02 0.0
2.500000e-01 1.250000e-02 0.0
2.625000e-01 1.250000e-02 0.0
2.750000e-01 1.250000e-02 0.0
2.875000e-01 1.250000e-02 0.0
3.000000e-01 1.250000e-02 0.0
3.125000e-01 1.250000e-02 0.0
3.250000e-01 1.250000e-02 0.0
3.375000e-01 1.250000e-02 0.0
3.500000e-01 1.250000e-02 0.0
3.625000e-01 1.250000e-02 0.0
3.750000e-01 1.250000e-02 0.0
3.875000e-01 1.250000e-02 0.0
4.000000e-01 1.250000e-02 0.0
4.125000e-01 1.250000e-02 0.0
4.250000e-01 1.250000e-02 0.0
4.375000e-01 1.250000e-02 0.0
4.500000e-01 1.250000e-02 0.0
4.625000e-01 1.250000e-02 0.0
4.750000e-01 1.250000e-02 0.0
4.875000e-01 1.250000e-02 0.0
5.000000e-01 1.250000e-02 0.0
5.125000e-01 1.250000e-02 0.0
5.250000e-01 1.250000e-02 0.0
5.375000e-01 1.250000e-02 0.0
5.500000e-01 1.250000e-02 0.0
5.625000e-01 1.250000e-02 0.0
5.750000e-01 1.250000e-02 0.0
5.875000e-01 1.250000e-02 0.0
6.000000e-01 1.250000e-02 0.0
6.125000e-01 1.250000e-02 0.0
6.250000e-01 1.250000e-02 0.0
6.375000e-01 1.250000e-02 0.0
6.500000e-01 1.250000e-02 0.0
6.625000e-01 1.250000e-02 0.0
6.750000e-01 1.250000e-02 0.0
6.875000e-01 1.250000e-02 0.0
7.000000e-01 1.250000e-02 0.0
7.125000e-01 1.250000e-02 0.0
7.250000e-01 1.250000e-02 0.0
7.375000e-01 1.250000e-02 0.0
7.500000e-01 1.250000e-02 0.0
7.625000e-01 1.250000e-02 0.0
7.750000e-01 1.250000e-02 0.0
7.875000e-01 1.250000e-02 0.0
8.000000e-01 1.250000e-02 0.0
8.125000e-01 1.250000e-02 0.0
8.250000e-01 1.250000e-02 0.0
8.375000e-01 1.250000e-02 0.0
8.500000e-01 1.250000e-02 0.0
8.625000e-01 1.250000e-02 0.0
8.750000e-01 1.250000e-02 0.0
8.875000e-01 1.250000e-02 0.0
9.000000e-01 1.250000e-02 0.0
9.125000e-01 1.250000e-02 0.0
9.250000e-01 1.250000e-02 0.0
9.375000e-01 1.250000e-02 0.0
9.500000e-01 1.250000e-02 0.0
9.625000e-01 1.250000e-02 0.0
9.750000e-01 1.250000e-02 0.0
9.875000e-01 1.250000e-02 0.0
1.000000e+00 1.250000e-02 0.0
0.000000e+00 2.500000e-02 0.0
1.250000e-02 2.500000e-02 0.0
2.500000e-02 2.500000e-02 0.0
3.750000e-02 2.500000e-02 0.0
5.000000e-02 2.500000e-02 0.0
6.250000e-02 2.500000e-02 0.0
7.500000e-02 2.500000e-02 0.0
8.750000e-02 2.500000e-02 0.0
1.000000e-01 2.500000e-02 0.0
1.125000e-01 2.500000e-02 0.0
1.250000e-01 2.500000e-02 0.0
1.375000e-01 2.500000e-02 0.0
1.500000e-01 2.500000e-02 0.0
1.625000e-01 2.500000e-02 0.0
1.750000e-01 2.500000e-02 0.0
1.875000e-01 2.500000e-02 0.0
2.000000e-01 2.500000e-02 0.0
2.125000e-01 2.500000e-02 0.0
2.250000e-01 2.500000e-02 0.0
2.375000e-01 2.500000e-02 0.0
2.500000e-01 2.500000e-02 0.0
2.625000e-01 2.500000e-02 0.0
2.750000e-01 2.500000e-02 0.0
2.875000e-01 2.500000e-02 0.0
3.000000e-01 2.500000e-02 0.0
3.125000e-01 2.500000e-02 0.0
3.250000e-01 2.500000e-02 0.0
3.375000e-01 2.500000e-02 0.0
3.500000e-01 2.500000e-02 0.0
3.625000e-01 2.500000e-02 0.0
3.750000e-01 2.500000e-02 0.0
3.875000e-01 2.500000e-02 0.0
4.000000e-01 2.500000e-02 0.0
4.125000e-01 2.500000e-02 0.0
4.250000e-01 2.500000e-02 0.0
4.375000e-01 2.500000e-02 0.0
4.500000e-01 2.500000e-02 0.0
4.625000e-01 2.500000e-02 0.0
4.750000e-01 2.500000e-02 0.0
4.875000e-01 2.500000e-02 0.0
5.000000e-01 2.500000e-02 0.0
5.125000e-01 2.500000e-02 0.0
5.250000e-01 2.500000e-02 0.0
5.375000e-01 2.500000e-02 0.0
5.500000e-01 2.500000e-02 0.0
5.625000e-01 2.500000e-02 0.0
5.750000e-01 2.500000e-02 0.0
5.875000e-01 2.500000e-02 0.0
6.000000e-01 2.500000e-02 0.0
6.125000e-01 2.500000e-02 0.0
6.250000e-01 2.500000e-02 0.0
6.375000e-01 2.500000e-02 0.0
6.500000e-01 2.500000e-02 0.0
6.625000e-01 2.500000e-02 0.0
6.750000e-01 2.500000e-02 0.0
6.875000e-01 2.500000e-02 0.0
7.000000e-01 2.500000e-02 0.0
7.125000e-01 2.500000e-02 0.0
7.250000e-01 2.500000e-02 0.0
7.375000e-01 2.500000e-02 0.0
7.500000e-01 2.500000e-02 0.0
7.625000e-01 2.500000e-02 0.0
7.750000e-01 2.500000e-02 0.0
7.875000e-01 2.500000e-02 0.0
8.000000e-01 2.500000e-02 0.0
8.125000e-01 2.500000e-02 0.0
8.250000e-01 2.500000e-02 0.0
8.375000e-01 2.500000e-02 0.0
8.500000e-01 2.500000e-02 0.0
8.625000e-01 2.500000e-02 0.0
8.750000e-01 2.500000e-02 0.0
8.875000e-01 2.500000e-02 0.0
9.000000e-01 2.500000e-02 0.0
9.125000e-01 2.500000e-02 0.0
9.250000e-01 2.500000e-02 0.0
9.375000e-01 2.500000e-02 0.0
9.500000e-01 2.500000e-02 0.0
9.625000e-01 2.500000e-02 0.0
9.750000e-01 2.500000e-02 0.0
9.875000e-01 2.500000e-02 0.0
1.000000e+00 2.500000e-02 0.0
0.000000e+00 3.750000e-02 0.0
1.250000e-02 3.750000e-02 0.0
2.500000e-02 3.750000e-02 0.0
3.750000e-02 3.750000e-02 0.0
5.000000e-02 3.750000e-02 0.0
6.250000e-02 3.750000e-02 0.0
7.500000e-02 3.750000e-02 0.0
8.750000e-02 3.750000e-02 0.0
1.000000e-01 3.750000e-02 0.0
1.125000e-01 3.750000e-02 0.0
1.250000e-01 3.750000e-02 0.0
1.375000e-01 3.750000e-02 0.0
1.500000e-01 3.750000e-02 0.0
1.625000e-01 3.750000e-02 0.0
1.750000e-01 3.750000e-02 0.0
1.875000e-01 3.750000e-02 0.0
2.000000e-01 3.750000e-02 0.0
2.125000e-01 3.750000e-02 0.0
2.250000e-01 3.750000e-02 0.0
2.375000e-01 3.750000e-02 0.0
2.500000e-01 3.750000e-02 0.0
2.625000e-01 3.750000e-02 0.0
2.750000e-01 3.750000e-02 0.0
2.875000e-01 3.750000e-02 0.0
3.000000e-01 3.750000e-02 0.0
3.125000e-01 3.750000e-02 0.0
3.250000e-01 3.750000e-02 0.0
3.375000e-01 3.750000e-02 0.0
3.500000e-01 3.750000e-02 0.0
3.625000e-01 3.750000e-02 0.0
3.750000e-01 3.750000e-02 0.0
3.875000e-01 3.750000e-02 0.0
4.000000e-01 3.750000e-02 0.0
4.125000e-01 3.750000e-02 0.0
4.250000e-01 3.750000e-02 0.0
4.375000e-01 3.750000e-02 0.0
4.500000e-01 3.750000e-02 0.0
4.625000e-01 3.750000e-02 0.0
4.750000e-01 3.750000e-02 0.0
4.875000e-01 3.750000e-02 0.0
5.000000e-01 3.750000e-02 0.0
5.125000e-01 3.750000e-02 0.0
5.250000e-01 3.750000e-02 0.0
5.375000e-01 3.750000e-02 0.0
5.500000e-01 3.750000e-02 0.0
5.625000e-01 3.750000e-02 0.0
5.750000e-01 3.750000e-02 0.0
5.875000e-01 3.750000e-02 0.0
6.000000e-01 3.750000e-02 0.0
6.125000e-01 3.750000e-02 0.0
6.250000e-01 3.750000e-02 0.0
6.375000e-01 3.750000e-02 0.0
6.500000e-01 3.750000e-02 0.0
6.625000e-01 3.750000e-02 0.0
6.750000e-01 3.750000e-02 0.0
6.875000e-01 3.750000e-02 0.0
7.000000e-01 3.750000e-02 0.0
7.125000e-01 3.750000e-02 0.0
7.250000e-01 3.750000e-02 0.0
7.375000e-01 3.750000e-02 0.0
7.500000e-01 3.750000e-02 0.0
7.625000e-01 3.750000e-02 0.0
7.750000e-01 3.750000e-02 0.0
7.875000e-01 3.750000e-02 0.0
8.000000e-01 3.750000e-02 0.0
8.125000e-01 3.750000e-02 0.0
8.250000e-01 3.750000e-02 0.0
8.375000e-01 3.750000e-02 0.0
8.500000e-01 3.750000e-02 0.0
8.625000e-01 3.750000e-02 0.0
8.750000e-01 3.750000e-02 0.0
8.875000e-01 3.750000e-02 0.0
9.000000e-01 3.750000e-02 0.0
9.125000e-01 3.750000e-02 0.0
9.250000e-01 3.750000e-02 0.0
9.375000e-01 3.750000e-02 0.0
9.500000e-01 3.750000e-02 0.0
9.625000e-01 3.750000e-02 0.0
9.750000e-01 3.750000e-02 0.0
9.875000e-01 3.750000e-02 0.0
1.000000e+00 3.750000e-02 0.0
0.000000e+00 5.000000e-02 0.0
1.250000e-02 5.000000e-02 0.0
2.500000e-02 5.000000e-02 0.0
3.750000e-02 5.000000e-02 0.0
[...]
CELL_DATA 6400
SCALARS Temperature double 1
LOOKUP_TABLE default
5.000000e-01
6.188366e-02
-3.961222e-02
-2.603575e-02
-2.989148e-03
4.671616e-03
2.944565e-03
1.600565e-04
-7.648646e-04
-4.409185e-04
5.095084e-06
1.424324e-04
7.509957e-05
-6.115559e-06
-2.856463e-05
-1.375400e-05
2.163641e-06
6.006766e-06
2.632115e-06
-6.372048e-07
-1.304662e-06
-5.173805e-07
1.757038e-07
2.899574e-07
1.032284e-07
-4.699442e-08
-6.553048e-08
-2.070948e-08
1.236674e-08
1.499418e-08
4.140651e-09
-3.223378e-09
-3.462356e-09
-8.169073e-10
8.350520e-10
8.048527e-10
1.569069e-10
-2.154196e-10
-1.879745e-10
-2.870617e-11
5.539817e-11
4.403585e-11
4.786809e-12
-1.421070e-11
-1.033287e-11
-6.439000e-13
3.637475e-12
2.425397e-12
3.112191e-14
-9.292497e-13
-5.687993e-13
2.311462e-14
2.369461e-13
1.331118e-13
-1.320715e-14
-6.030557e-14
-3.104525e-14
5.103238e-15
1.531934e-14
7.205650e-15
-1.715650e-15
-3.883867e-15
-1.661605e-15
5.368700e-16
9.826171e-16
3.799068e-16
-1.608178e-16
-2.480517e-16
-8.590185e-17
4.677401e-17
6.247014e-17
1.914649e-17
-1.331452e-17
-1.569275e-17
-4.192888e-18
3.720489e-18
3.933618e-18
9.048603e-19
-1.052503e-18
-7.706624e-19
9.381163e-01
5.000000e-01
1.358050e-01
-2.328141e-02
-4.225380e-02
-1.681271e-02
1.921546e-03
5.544789e-03
2.382411e-03
-3.734030e-04
-9.332710e-04
-3.910129e-04
8.642762e-05
1.767047e-04
6.966662e-05
-2.092928e-05
-3.579001e-05
-1.302151e-05
5.158061e-06
7.568025e-06
2.502070e-06
-1.282911e-06
-1.647971e-06
-4.873174e-07
3.208992e-07
3.663923e-07
9.508129e-08
-8.057480e-08
-8.269527e-08
-1.836235e-08
2.028537e-08
1.887041e-08
3.456661e-09
-5.116399e-09
-4.340357e-09
-6.189921e-10
1.292036e-09
1.003872e-09
1.003397e-10
-3.265115e-10
-2.330193e-10
-1.274185e-11
8.253893e-11
5.419248e-11
3.329107e-13
-2.086428e-11
-1.260846e-11
5.862959e-13
5.272279e-12
2.930450e-12
-3.057403e-13
-1.331443e-12
-6.793983e-13
1.146704e-13
3.359417e-13
1.568765e-13
-3.792970e-14
-8.466719e-14
-3.601413e-14
1.174086e-14
2.130944e-14
8.202763e-15
-3.488663e-15
-5.354646e-15
-1.848734e-15
1.008285e-15
1.343031e-15
4.108647e-16
-2.856277e-16
-3.361516e-16
-8.960842e-17
7.968448e-17
8.394885e-17
1.905648e-17
-2.194867e-17
-2.092898e-17
-3.940739e-18
5.991527e-18
5.160978e-18
5.994711e-19
1.039612e+00
8.641950e-01
5.000000e-01
1.695997e-01
-6.242363e-03
-4.667022e-02
-2.668077e-02
-2.957328e-03
5.866270e-03
4.214989e-03
6.057313e-04
-9.777465e-04
-7.505676e-04
-1.073820e-04
1.889254e-04
1.446251e-04
1.831404e-05
-3.963060e-05
-2.931869e-05
-2.961354e-06
8.739045e-06
6.149600e-06
4.243196e-07
-1.990673e-06
-1.320665e-06
-4.198028e-08
4.636132e-07
2.883452e-07
-2.970769e-09
-1.096736e-07
-6.367981e-08
3.660158e-09
2.623929e-08
1.417014e-08
-1.563973e-09
-6.329812e-09
-3.167053e-09
5.385450e-10
1.536256e-09
7.089947e-10
-1.687978e-10
-3.745009e-10
-1.585634e-10
5.022506e-11
9.158026e-11
3.533259e-11
-1.446374e-11
-2.244212e-11
-7.821173e-12
4.073393e-12
5.506417e-12
1.713713e-12
-1.128805e-12
-1.351766e-12
-3.699487e-13
3.090023e-13
3.318039e-13
7.816234e-14
-8.377456e-14
-8.138668e-14
-1.599666e-14
2.253458e-14
1.993766e-14
3.115208e-15
-6.021804e-15
-4.875356e-15
-5.568583e-16
1.600092e-15
1.189358e-15
8.321251e-17
-4.230579e-16
-2.893216e-16
-6.642531e-18
1.113528e-16
7.017514e-17
-1.870972e-18
-2.920782e-17
-1.701408e-17
1.536617e-18
6.464130e-18
1.026036e+00
1.023281e+00
8.304003e-01
5.000000e-01
1.906250e-01
8.135609e-03
-4.699545e-02
-3.376551e-02
-8.140458e-03
4.913728e-03
5.466505e-03
1.754596e-03
-6.981705e-04
-9.852208e-04
-3.507679e-04
1.248053e-04
1.932548e-04
7.071849e-05
-2.581924e-05
-4.014529e-05
-1.449157e-05
5.833705e-06
8.674251e-06
3.008497e-06
-1.388676e-06
-1.927068e-06
-6.296039e-07
3.409332e-07
4.368049e-07
1.321365e-07
-8.526295e-08
-1.004826e-07
-2.766210e-08
2.156269e-08
2.336914e-08
5.741426e-09
-5.490227e-09
-5.479026e-09
-1.172432e-09
1.403598e-09
1.292154e-09
2.329625e-10
-3.596725e-10
-3.059920e-10
-4.422576e-11
9.227547e-11
7.265331e-11
7.738721e-12
-2.368313e-11
-1.727443e-11
-1.138700e-12
6.077482e-12
4.108322e-12
9.155810e-14
-1.558691e-12
-9.762863e-13
2.439709e-14
3.994005e-13
2.315739e-13
-1.776461e-14
-1.022248e-13
-5.476908e-14
7.336029e-15
2.612797e-14
1.290065e-14
-2.555696e-15
-6.667627e-15
-3.022401e-15
8.194422e-16
1.698544e-15
7.032533e-16
-2.500983e-16
-4.318963e-16
-1.622733e-16
7.381886e-17
1.096539e-16
3.719164e-17
-2.139178e-17
-2.738080e-17
-8.255216e-18
1.002989e+00
1.042254e+00
1.006242e+00
8.093750e-01
5.000000e-01
2.055563e-01
2.030218e-02
-4.544514e-02
-3.886002e-02
-1.307375e-02
3.215710e-03
6.155175e-03
2.873318e-03
-2.021803e-04
-1.071791e-03
-5.884817e-04
5.569646e-06
2.055775e-04
1.222457e-04
1.531910e-06
-4.235941e-05
-2.599686e-05
-3.750951e-07
9.184570e-06
5.644309e-06
2.057837e-08
-2.065254e-06
-1.245728e-06
2.026578e-08
4.767727e-07
2.783774e-07
-1.211497e-08
-1.122040e-07
-6.277611e-08
4.851450e-09
2.678458e-08
1.424596e-08
-1.671874e-09
-6.461902e-09
-3.245526e-09
5.324136e-10
1.571320e-09
7.407039e-10
-1.615527e-10
-3.843380e-10
-1.690029e-10
4.746010e-11
9.441122e-11
3.847312e-11
-1.362489e-11
-2.326250e-11
-8.719630e-12
3.844742e-12
5.743489e-12
1.962668e-12
-1.070576e-12
-1.419780e-12
-4.374183e-13
2.949496e-13
3.511436e-13
9.614786e-14
-8.055435e-14
-8.683556e-14
-2.072913e-14
2.183973e-14
2.145933e-14
4.347121e-15
-5.884017e-15
-5.296839e-15
-8.746078e-16
1.576560e-15
1.305291e-15
1.645594e-16
-4.203476e-16
-3.210909e-16
-2.748895e-17
1.116638e-16
7.894653e-17
2.715665e-18
-2.536052e-17
9.953284e-01
1.016813e+00
1.046670e+00
9.918644e-01
7.944437e-01
5.000000e-01
2.170431e-01
3.080288e-02
-4.296209e-02
-4.253284e-02
-1.758541e-02
1.097546e-03
6.366840e-03
3.865781e-03
4.211032e-04
-1.019054e-03
-7.877540e-04
-1.460242e-04
1.813289e-04
1.633245e-04
3.681488e-05
-3.541833e-05
-3.487543e-05
-8.539669e-06
7.446478e-06
7.650131e-06
1.919203e-06
-1.655201e-06
-1.715382e-06
-4.245171e-07
3.833543e-07
3.913776e-07
9.283204e-08
-9.148066e-08
-9.051441e-08
-2.006310e-08
2.230533e-08
2.115411e-08
4.271879e-09
-5.523112e-09
-4.983781e-09
-8.907910e-10
1.382706e-09
1.181256e-09
1.801011e-10
-3.488602e-10
-2.812133e-10
-3.468328e-11
8.849788e-11
6.714766e-11
6.136407e-12
-2.253346e-11
-1.606226e-11
-9.078127e-13
5.751503e-12
3.844992e-12
7.107098e-14
-1.470194e-12
-9.201617e-13
2.126495e-14
3.760851e-13
2.199354e-13
-1.513771e-14
-9.621951e-14
-5.245281e-14
6.265163e-15
2.460956e-14
1.246945e-14
-2.194648e-15
-6.289920e-15
-2.951668e-15
7.080789e-16
1.606095e-15
6.950176e-16
-2.173512e-16
-4.097571e-16
-1.629649e-16
6.495140e-17
1.033099e-16
3.600150e-17
9.970554e-01
9.980785e-01
1.026681e+00
1.046995e+00
9.796978e-01
7.829569e-01
5.000000e-01
2.263400e-01
4.002282e-02
-4.000473e-02
-4.516819e-02
-2.163972e-02
-1.239586e-03
6.194099e-03
4.690800e-03
1.105117e-03
-8.480506e-04
-9.315806e-04
-3.102744e-04
1.252678e-04
1.884280e-04
7.456808e-05
-2.039049e-05
-3.950921e-05
-1.721089e-05
3.692579e-06
8.575883e-06
3.933539e-06
-7.449043e-07
-1.916720e-06
-8.988639e-07
1.656378e-07
4.386577e-07
2.059595e-07
-3.977663e-08
-1.023023e-07
-4.733656e-08
1.007867e-08
2.421687e-08
1.090559e-08
-2.641287e-09
-5.800149e-09
-2.515721e-09
7.056715e-10
1.401974e-09
5.803189e-10
-1.904087e-10
-3.412955e-10
-1.336684e-10
5.159118e-11
8.353962e-11
3.069327e-11
-1.398958e-11
-2.053237e-11
-7.013020e-12
3.789142e-12
5.061581e-12
1.590942e-12
-1.024061e-12
-1.250338e-12
-3.573468e-13
2.760067e-13
3.092542e-13
7.918143e-14
-7.416680e-14
-7.653305e-14
-1.721974e-14
1.986794e-14
1.893915e-14
3.647198e-15
-5.305742e-15
-4.684062e-15
-7.430885e-16
1.412539e-15
1.157487e-15
1.428000e-16
-3.751569e-16
-2.862211e-16
-2.170387e-17
8.510453e-17
9.998399e-01
9.944552e-01
1.002957e+00
1.033766e+00
1.045445e+00
9.691971e-01
7.736600e-01
5.000000e-01
2.341275e-01
4.823217e-02
-3.681373e-02
-4.702928e-02
-2.525336e-02
-3.670578e-03
5.719214e-03
5.336686e-03
1.802738e-03
-5.829705e-04
-1.013371e-03
-4.718305e-04
4.431352e-05
1.951866e-04
1.102221e-04
8.080555e-07
-3.916845e-05
-2.510660e-05
-1.565766e-06
8.210466e-06
5.716845e-06
5.335504e-07
-1.790255e-06
-1.311123e-06
-1.431560e-07
4.036502e-07
3.033910e-07
3.473380e-08
-9.355496e-08
-7.080853e-08
-7.921914e-09
2.217117e-08
1.665052e-08
1.715530e-09
-5.348069e-09
-3.939833e-09
-3.507776e-10
1.308146e-09
9.368815e-10
6.613486e-11
-3.234705e-10
-2.236301e-10
-1.076454e-11
8.066024e-11
5.352245e-11
1.171597e-12
-2.024283e-11
-1.283095e-11
1.039928e-13
5.104837e-12
3.078104e-12
-1.291966e-13
-1.291932e-12
-7.382637e-13
5.906542e-14
3.277925e-13
1.768689e-13
-2.169835e-14
-8.331028e-14
-4.228679e-14
7.217956e-15
2.119550e-14
1.008004e-14
-2.267906e-15
-5.395172e-15
-2.393545e-15
6.862432e-16
1.373706e-15
5.666475e-16
-2.038298e-16
-3.463679e-16
-1.251918e-16
1.000765e+00
9.976176e-01
9.941337e-01
1.008140e+00
1.038860e+00
1.042962e+00
9.599772e-01
7.658725e-01
5.000000e-01
2.408136e-01
5.562533e-02
-3.352271e-02
-4.830109e-02
-2.846183e-02
-6.117175e-03
5.010537e-03
5.807157e-03
2.481793e-03
-2.470206e-04
-1.033012e-03
-6.195674e-04
-5.412193e-05
1.834594e-04
1.403333e-04
2.594738e-05
-3.381747e-05
-3.123419e-05
-7.692373e-06
6.546118e-06
6.994796e-06
2.005834e-06
-1.333680e-06
-1.587283e-06
-4.966153e-07
2.854126e-07
3.654319e-07
1.199466e-07
-6.386835e-08
-8.528017e-08
-2.858706e-08
1.485504e-08
2.014109e-08
6.757785e-09
-3.567413e-09
-4.805606e-09
-1.588013e-09
8.788201e-10
1.156414e-09
3.711999e-10
-2.207878e-10
-2.802310e-10
-8.628801e-11
5.629065e-11
6.829233e-11
1.992864e-11
-1.450623e-11
-1.671742e-11
-4.565882e-12
3.766857e-12
4.106411e-12
1.035463e-12
-9.832756e-13
-1.011256e-12
-2.317167e-13
2.575499e-13
2.494716e-13
5.093893e-14
-6.760062e-14
-6.160798e-14
-1.092665e-14
1.776251e-14
1.522103e-14
2.262582e-15
-4.668669e-15
-3.760678e-15
-4.447474e-16
1.227527e-15
9.304286e-16
6.925719e-17
-2.766610e-16
1.000441e+00
1.000373e+00
9.957850e-01
9.950863e-01
1.013074e+00
1.042533e+00
1.040005e+00
9.517678e-01
7.591864e-01
5.000000e-01
2.466611e-01
6.234601e-02
-3.020873e-02
-4.911685e-02
-3.130554e-02
-8.530464e-03
4.123276e-03
6.113552e-03
3.121076e-03
1.392515e-04
-9.941753e-04
-7.459561e-04
-1.630326e-04
1.545538e-04
1.625579e-04
5.282230e-05
-2.390787e-05
-3.492209e-05
-1.403690e-05
3.726830e-06
7.583525e-06
3.488825e-06
-5.896014e-07
-1.678084e-06
-8.447608e-07
9.583711e-08
3.789961e-07
2.025021e-07
-1.641769e-08
-8.728101e-08
-4.839594e-08
3.087113e-09
2.045578e-08
1.156673e-08
-6.631392e-10
-4.867835e-09
-2.768023e-09
1.639704e-10
1.173538e-09
6.634677e-10
-4.511875e-11
-2.860148e-10
-1.592531e-10
1.317208e-11
7.033858e-11
3.826401e-11
-3.934575e-12
-1.742603e-11
-9.197781e-12
1.178329e-12
4.342967e-12
2.210466e-12
-3.505009e-13
-1.087500e-12
-5.307423e-13
1.031883e-13
2.733231e-13
1.272179e-13
-3.004350e-14
-6.888809e-14
-3.041726e-14
8.653957e-15
1.739871e-14
7.248491e-15
-2.467516e-15
-4.401514e-15
-1.722820e-15
7.028859e-16
1.103802e-15
3.817122e-16
9.999949e-01
1.000933e+00
9.993943e-01
9.945335e-01
9.967843e-01
1.017585e+00
1.045168e+00
1.036814e+00
9.443747e-01
7.533389e-01
5.000000e-01
2.518494e-01
6.850320e-02
-2.691723e-02
-4.957466e-02
-3.382397e-02
-1.088022e-02
3.101458e-03
6.270536e-03
3.707247e-03
5.584400e-04
-9.025615e-04
-8.463299e-04
-2.762476e-04
1.106315e-04
1.755086e-04
7.944604e-05
-1.019709e-05
-3.579996e-05
-2.000591e-05
-3.943408e-09
7.389688e-06
4.814096e-06
3.689319e-07
-1.560479e-06
-1.141321e-06
-1.442271e-07
3.383687e-07
2.699428e-07
4.305579e-08
-7.536676e-08
-6.403618e-08
-1.159220e-08
1.722010e-08
1.526841e-08
2.959378e-09
-4.026875e-09
-3.661334e-09
-7.313161e-10
9.611545e-10
8.828801e-10
1.766243e-10
-2.334901e-10
-2.139768e-10
-4.187419e-11
5.756831e-11
5.208970e-11
9.759159e-12
-1.436868e-11
-1.272774e-11
-2.234315e-12
3.622160e-12
3.119315e-12
5.011489e-13
-9.203778e-13
-7.662655e-13
-1.095496e-13
2.353272e-13
1.885520e-13
2.312494e-14
-6.045952e-14
-4.644712e-14
-4.635824e-15
1.558944e-14
1.144900e-14
8.552794e-16
-4.032778e-15
-2.826880e-15
-9.931635e-17
9.005483e-16
9.998576e-01
1.000391e+00
1.000978e+00
9.982454e-01
9.938448e-01
9.989025e-01
1.021640e+00
1.047029e+00
1.033523e+00
9.376540e-01
7.481506e-01
5.000000e-01
2.565060e-01
7.418145e-02
-2.367518e-02
-4.974825e-02
-3.605346e-02
-1.314829e-02
1.980007e-03
6.293754e-03
4.232527e-03
9.962066e-04
-7.647785e-04
-9.182044e-04
-3.885868e-04
5.428406e-05
1.785743e-04
1.041446e-04
6.395809e-06
-3.375412e-05
-2.510265e-05
-4.348885e-06
6.400153e-06
5.842285e-06
1.452176e-06
-1.235418e-06
-1.348494e-06
-4.089756e-07
2.447800e-07
3.122055e-07
1.073767e-07
-5.005358e-08
-7.285365e-08
-2.723350e-08
1.060266e-08
1.716543e-08
6.779170e-09
-2.331391e-09
-4.084820e-09
-1.669461e-09
5.322147e-10
9.813051e-10
4.084328e-10
-1.258865e-10
-2.377886e-10
-9.948905e-11
3.073737e-11
5.806477e-11
2.415613e-11
-7.709539e-12
-1.427361e-11
-5.848943e-12
1.975950e-12
3.528834e-12
1.412349e-12
-5.149027e-13
-8.766151e-13
-3.400253e-13
1.358199e-13
2.186272e-13
8.157980e-14
-3.613371e-14
-5.470118e-14
-1.949403e-14
9.666461e-15
1.372330e-14
4.643155e-15
-2.613879e-15
-3.411934e-15
-1.037483e-15
9.999249e-01
9.999136e-01
1.000751e+00
1.000698e+00
9.971267e-01
9.936332e-01
1.001240e+00
1.025253e+00
1.048301e+00
1.030209e+00
9.314968e-01
7.434940e-01
5.000000e-01
2.607251e-01
7.944761e-02
-2.049838e-02
-4.969392e-02
-3.802654e-02
-1.532439e-02
7.865714e-04
6.198581e-03
4.693019e-03
1.440976e-03
-5.876520e-04
-9.607070e-04
-4.958642e-04
-1.175797e-05
1.717410e-04
1.255876e-04
2.489684e-05
-2.887440e-05
-2.894419e-05
-8.993016e-06
4.666774e-06
6.470149e-06
2.565285e-06
-7.235979e-07
-1.439484e-06
-6.712047e-07
1.052481e-07
3.224625e-07
1.689912e-07
-1.351017e-08
-7.311830e-08
-4.178369e-08
1.235167e-09
1.681813e-08
1.024609e-08
4.188142e-11
-3.925869e-09
-2.504445e-09
-6.526003e-11
9.296020e-10
6.118000e-10
2.403418e-11
-2.230658e-10
-1.495636e-10
-6.822097e-12
5.417497e-11
3.661123e-11
1.694127e-12
-1.329841e-11
-8.975164e-12
-3.779709e-13
3.294867e-12
2.203275e-12
7.430925e-14
-8.228817e-13
-5.414866e-13
-1.165757e-14
2.069013e-13
1.331869e-13
7.729078e-16
-5.231559e-14
-3.277665e-14
4.294654e-16
1.329753e-14
8.076013e-15
-3.840621e-16
-2.942864e-15
1.000006e+00
9.998233e-01
1.000107e+00
1.000985e+00
1.000202e+00
9.961342e-01
9.938059e-01
1.003671e+00
1.028462e+00
1.049117e+00
1.026917e+00
9.258186e-01
7.392749e-01
5.000000e-01
2.645779e-01
8.435548e-02
-1.739572e-02
-4.945536e-02
-3.977191e-02
-1.740345e-02
-4.569679e-04
5.999488e-03
5.087511e-03
1.883553e-03
-3.778148e-04
-9.741193e-04
-5.948147e-04
-8.481364e-05
1.554332e-04
1.427805e-04
4.435156e-05
-2.140178e-05
-3.126340e-05
-1.363031e-05
2.289799e-06
6.632249e-06
3.617217e-06
-6.038410e-08
-1.399262e-06
-9.051476e-07
-6.893441e-08
2.974113e-07
2.208362e-07
3.088129e-08
-6.412370e-08
-5.334478e-08
-9.912039e-09
1.407706e-08
1.285612e-08
2.822749e-09
-3.152630e-09
-3.103327e-09
-7.576223e-10
7.207808e-10
7.517815e-10
1.965112e-10
-1.681918e-10
-1.829258e-10
-4.987099e-11
4.001937e-11
4.471772e-11
1.246629e-11
-9.695263e-12
-1.098128e-11
-3.080948e-12
2.387138e-12
2.708033e-12
7.543789e-13
-5.961363e-13
-6.703427e-13
-1.831895e-13
1.506839e-13
1.664867e-13
4.413435e-14
-3.847206e-14
-4.147090e-14
-1.056523e-14
9.964799e-15
1.021687e-14
2.417138e-15
1.000029e+00
9.999303e-01
9.998111e-01
1.000351e+00
1.001072e+00
9.995789e-01
9.953092e-01
9.942808e-01
1.006117e+00
1.031306e+00
1.049575e+00
1.023675e+00
9.205524e-01
7.354221e-01
5.000000e-01
2.681196e-01
8.894898e-02
-1.437172e-02
-4.906691e-02
-4.131473e-02
-1.938378e-02
-1.733289e-03
5.709756e-03
5.416618e-03
2.316749e-03
-1.414769e-04
-9.595238e-04
-6.829863e-04
-1.623680e-04
1.303802e-04
1.550360e-04
6.387361e-05
-1.168130e-05
-3.190147e-05
-1.798182e-05
-5.979409e-07
6.299033e-06
4.526984e-06
7.092989e-07
-1.224077e-06
-1.088513e-06
-2.637925e-07
2.371451e-07
2.569768e-07
7.900696e-08
-4.615390e-08
-6.036698e-08
-2.167208e-08
9.074818e-09
1.420853e-08
5.688517e-09
-1.812152e-09
-3.362829e-09
-1.457190e-09
3.696311e-10
8.017420e-10
3.680141e-10
-7.750183e-11
-1.926841e-10
-9.215079e-11
1.681128e-11
4.668426e-11
2.295322e-11
-3.792422e-12
-1.139923e-11
-5.698153e-12
8.921191e-13
2.803699e-12
1.411416e-12
-2.186486e-13
-6.941563e-13
-3.490392e-13
5.559250e-14
1.728827e-13
8.620716e-14
-1.455354e-14
-4.330924e-14
-2.127328e-14
4.166174e-15
9.530072e-15
1.000014e+00
1.000021e+00
9.998554e-01
9.998752e-01
1.000588e+00
1.001019e+00
9.988949e-01
9.946633e-01
9.949895e-01
1.008530e+00
1.033824e+00
1.049748e+00
1.020498e+00
9.156445e-01
7.318804e-01
5.000000e-01
2.713941e-01
9.326443e-02
-1.142811e-02
-4.855588e-02
-4.267701e-02
-2.126594e-02
-3.028678e-03
5.341385e-03
5.682169e-03
2.735029e-03
1.156898e-04
-9.185348e-04
-7.586226e-04
-2.421375e-04
9.750937e-05
1.619352e-04
8.267359e-05
-1.224676e-07
-3.079526e-05
-2.180677e-05
-3.844932e-06
5.472722e-06
5.227555e-06
1.535609e-06
-9.201294e-07
-1.203768e-06
-4.641576e-07
1.447377e-07
2.730102e-07
1.264825e-07
-2.035618e-08
-6.177120e-08
-3.282035e-08
2.188069e-09
1.404209e-08
8.304821e-09
-1.933119e-11
-3.219912e-09
-2.074027e-09
-9.041414e-11
7.464017e-10
5.145872e-10
3.958605e-11
-1.750972e-10
-1.273207e-10
-1.285765e-11
4.158160e-11
3.148317e-11
3.709384e-12
-9.994309e-12
-7.789916e-12
-1.003307e-12
2.429925e-12
1.929950e-12
2.602904e-13
-5.971395e-13
-4.789057e-13
-6.549235e-14
1.481753e-13
1.190483e-13
1.611074e-14
-3.727688e-14
-2.914049e-14
-4.032336e-15
9.999978e-01
1.000036e+00
9.999817e-01
9.998067e-01
9.999944e-01
1.000788e+00
1.000848e+00
9.981973e-01
9.941928e-01
9.958767e-01
1.010880e+00
1.036053e+00
1.049694e+00
1.017396e+00
9.110510e-01
7.286059e-01
5.000000e-01
2.744367e-01
9.733224e-02
-8.564849e-03
-4.794421e-02
-4.387800e-02
-2.305197e-02
-4.332283e-03
4.905109e-03
5.886778e-03
3.134217e-03
3.885952e-04
-8.530981e-04
-8.205486e-04
-3.221004e-04
5.786282e-05
1.632856e-04
1.000735e-04
1.283281e-05
-2.796227e-05
-2.490822e-05
-7.292493e-06
4.182062e-06
5.667835e-06
2.367711e-06
-5.017984e-07
-1.238777e-06
-6.549453e-07
2.566185e-08
2.662581e-07
1.690538e-07
1.144363e-08
-5.700558e-08
-4.219634e-08
-6.019297e-09
1.225129e-08
1.036173e-08
2.060099e-09
-2.656337e-09
-2.526438e-09
-6.122511e-10
5.831193e-10
6.148554e-10
1.699951e-10
-1.299361e-10
-1.498076e-10
-4.541808e-11
2.944533e-11
3.660453e-11
1.184797e-11
-6.794447e-12
-8.977848e-12
-3.042200e-12
1.597343e-12
2.211180e-12
7.725654e-13
-3.825755e-13
-5.469288e-13
-1.946180e-13
9.325231e-14
1.359355e-13
4.866864e-14
-2.373806e-14
-2.992672e-14
9.999940e-01
1.000013e+00
1.000040e+00
9.999293e-01
9.997944e-01
1.000146e+00
1.000932e+00
1.000583e+00
9.975182e-01
9.938864e-01
9.968985e-01
1.013148e+00
1.038027e+00
1.049455e+00
1.014372e+00
9.067356e-01
7.255633e-01
5.000000e-01
2.772760e-01
1.011781e-01
-5.780748e-03
-4.724967e-02
-4.493455e-02
-2.474478e-02
-5.635523e-03
4.410471e-03
6.033534e-03
3.511235e-03
6.727315e-04
-7.653438e-04
-8.680662e-04
-4.005053e-04
1.253413e-05
1.590803e-04
1.155114e-04
2.673500e-05
-2.348515e-05
-2.713481e-05
-1.078384e-05
2.476708e-06
5.813173e-06
3.156895e-06
1.031773e-08
-1.186923e-06
-8.221736e-07
-1.128667e-07
2.357883e-07
2.029157e-07
4.695226e-08
-4.604627e-08
-4.880026e-08
-1.486193e-08
8.885043e-09
1.160236e-08
4.229493e-09
-1.697905e-09
-2.749261e-09
-1.140996e-09
3.215849e-10
6.523920e-10
2.986980e-10
-6.037853e-11
-1.554756e-10
-7.680998e-11
1.124307e-11
3.727330e-11
1.953667e-11
-2.080756e-12
-8.997099e-12
-4.935627e-12
3.850081e-13
2.187458e-12
1.241712e-12
-7.216832e-14
-5.356871e-13
-3.116382e-13
1.396036e-14
1.326423e-13
7.634930e-14
-8.056546e-16
9.999974e-01
9.999948e-01
1.000029e+00
1.000026e+00
9.998778e-01
9.998187e-01
1.000310e+00
1.001013e+00
1.000247e+00
9.968789e-01
9.937295e-01
9.980200e-01
1.015324e+00
1.039772e+00
1.049067e+00
1.011428e+00
9.026678e-01
7.227240e-01
5.000000e-01
2.799360e-01
1.048239e-01
-3.073908e-03
-4.648680e-02
-4.586143e-02
-2.634786e-02
-6.931632e-03
3.865913e-03
6.125789e-03
3.863896e-03
9.641480e-04
-6.574793e-04
-9.008619e-04
-4.758636e-04
-3.737824e-05
1.494600e-04
1.285385e-04
4.114546e-05
-1.749695e-05
-2.837957e-05
-1.417087e-05
4.217283e-07
5.644786e-06
3.858889e-06