# vtk DataFile Version 3.0
QUICK scheme
ASCII
DATASET STRUCTURED_GRID
DIMENSIONS 81 81 1
POINTS 6561 double
0.000000e+00 0.000000e+00 0.0
1.250000e-02 0.000000e+00 0.0
2.500000e-02 0.000000e+00 0.0
3.750000e-02 0.000000e+00 0.0
5.000000e-02 0.000000e+00 0.0
6.250000e-02 0.000000e+00 0.0
7.500000e-02 0.000000e+00 0.0
8.750000e-02 0.000000e+00 0.0
1.000000e-01 0.000000e+00 0.0
1.125000e-01 0.000000e+00 0.0
1.250000e-01 0.000000e+00 0.0
1.375000e-01 0.000000e+00 0.0
1.500000e-01 0.000000e+00 0.0
1.625000e-01 0.000000e+00 0.0
1.750000e-01 0.000000e+00 0.0
1.875000e-01 0.000000e+00 0.0
2.000000e-01 0.000000e+00 0.0
2.125000e-01 0.000000e+00 0.0
2.250000e-01 0.000000e+00 0.0
2.375000e-01 0.000000e+00 0.0
2.500000e-01 0.000000e+00 0.0
2.625000e-01 0.000000e+00 0.0
2.750000e-01 0.000000e+00 0.0
2.875000e-01 0.000000e+00 0.0
3.000000e-01 0.000000e+00 0.0
3.125000e-01 0.000000e+00 0.0
3.250000e-01 0.000000e+00 0.0
3.375000e-01 0.000000e+00 0.0
3.500000e-01 0.000000e+00 0.0
3.625000e-01 0.000000e+00 0.0
3.750000e-01 0.000000e+00 0.0
3.875000e-01 0.000000e+00 0.0
4.000000e-01 0.000000e+00 0.0
4.125000e-01 0.000000e+00 0.0
4.250000e-01 0.000000e+00 0.0
4.375000e-01 0.000000e+00 0.0
4.500000e-01 0.000000e+00 0.0
4.625000e-01 0.000000e+00 0.0
4.750000e-01 0.000000e+00 0.0
4.875000e-01 0.000000e+00 0.0
5.000000e-01 0.000000e+00 0.0
5.125000e-01 0.000000e+00 0.0
5.250000e-01 0.000000e+00 0.0
5.375000e-01 0.000000e+00 0.0
5.500000e-01 0.000000e+00 0.0
5.625000e-01 0.000000e+00 0.0
5.750000e-01 0.000000e+00 0.0
5.875000e-01 0.000000e+00 0.0
6.000000e-01 0.000000e+00 0.0
6.125000e-01 0.000000e+00 0.0
6.250000e-01 0.000000e+00 0.0
6.375000e-01 0.000000e+00 0.0
6.500000e-01 0.000000e+00 0.0
6.625000e-01 0.000000e+00 0.0
6.750000e-01 0.000000e+00 0.0
6.875000e-01 0.000000e+00 0.0
7.000000e-01 0.000000e+00 0.0
7.125000e-01 0.000000e+00 0.0
7.250000e-01 0.000000e+00 0.0
7.375000e-01 0.000000e+00 0.0
7.500000e-01 0.000000e+00 0.0
7.625000e-01 0.000000e+00 0.0
7.750000e-01 0.000000e+00 0.0
7.875000e-01 0.000000e+00 0.0
8.000000e-01 0.000000e+00 0.0
8.125000e-01 0.000000e+00 0.0
8.250000e-01 0.000000e+00 0.0
8.375000e-01 0.000000e+00 0.0
8.500000e-01 0.000000e+00 0.0
8.625000e-01 0.000000e+00 0.0
8.750000e-01 0.000000e+00 0.0
8.875000e-01 0.000000e+00 0.0
9.000000e-01 0.000000e+00 0.0
9.125000e-01 0.000000e+00 0.0
9.250000e-01 0.000000e+00 0.0
9.375000e-01 0.000000e+00 0.0
9.500000e-01 0.000000e+00 0.0
9.625000e-01 0.000000e+00 0.0
9.750000e-01 0.000000e+00 0.0
9.875000e-01 0.000000e+00 0.0
1.000000e+00 0.000000e+00 0.0
0.000000e+00 1.250000e-02 0.0
1.250000e-02 1.250000e-02 0.0
2.500000e-02 1.250000e-02 0.0
3.750000e-02 1.250000e-02 0.0
5.000000e-02 1.250000e-02 0.0
6.250000e-02 1.250000e-02 0.0
7.500000e-02 1.250000e-02 0.0
8.750000e-02 1.250000e-02 0.0
1.000000e-01 1.250000e-02 0.0
1.125000e-01 1.250000e-02 0.0
1.250000e-01 1.250000e-02 0.0
1.375000e-01 1.250000e-02 0.0
1.500000e-01 1.250000e-02 0.0
1.625000e-01 1.250000e-02 0.0
1.750000e-01 1.250000e-02 0.0
1.875000e-01 1.250000e-02 0.0
2.000000e-01 1.250000e-02 0.0
2.125000e-01 1.250000e-02 0.0
2.250000e-01 1.250000e-02 0.0
2.375000e-01 1.250000e-02 0.0
2.500000e-01 1.250000e-02 0.0
2.625000e-01 1.250000e-02 0.0
2.750000e-01 1.250000e-02 0.0
2.875000e-01 1.250000e-02 0.0
3.000000e-01 1.250000e-02 0.0
3.125000e-01 1.250000e-02 0.0
3.250000e-01 1.250000e-02 0.0
3.375000e-01 1.250000e-02 0.0
3.500000e-01 1.250000e-02 0.0
3.625000e-01 1.250000e-02 0.0
3.750000e-01 1.250000e-02 0.0
3.875000e-01 1.250000e-02 0.0
4.000000e-01 1.250000e-02 0.0
4.125000e-01 1.250000e-02 0.0
4.250000e-01 1.250000e-02 0.0
4.375000e-01 1.250000e-02 0.0
4.500000e-01 1.250000e-02 0.0
4.625000e-01 1.250000e-02 0.0
4.750000e-01 1.250000e-02 0.0
4.875000e-01 1.250000e-02 0.0
5.000000e-01 1.250000e-02 0.0
5.125000e-01 1.250000e-02 0.0
5.250000e-01 1.250000e-02 0.0
5.375000e-01 1.250000e-02 0.0
5.500000e-01 1.250000e-02 0.0
5.625000e-01 1.250000e-02 0.0
5.750000e-01 1.250000e-02 0.0
5.875000e-01 1.250000e-02 0.0
6.000000e-01 1.250000e-02 0.0
6.125000e-01 1.250000e-02 0.0
6.250000e-01 1.250000e-02 0.0
6.375000e-01 1.250000e-02 0.0
6.500000e-01 1.250000e-02 0.0
6.625000e-01 1.250000e-02 0.0
6.750000e-01 1.250000e-02 0.0
6.875000e-01 1.250000e-02 0.0
7.000000e-01 1.250000e-02 0.0
7.125000e-01 1.250000e-02 0.0
7.250000e-01 1.250000e-02 0.0
7.375000e-01 1.250000e-02 0.0
7.500000e-01 1.250000e-02 0.0
7.625000e-01 1.250000e-02 0.0
7.750000e-01 1.250000e-02 0.0
7.875000e-01 1.250000e-02 0.0
8.000000e-01 1.250000e-02 0.0
8.125000e-01 1.250000e-02 0.0
8.250000e-01 1.250000e-02 0.0
8.375000e-01 1.250000e-02 0.0
8.500000e-01 1.250000e-02 0.0
8.625000e-01 1.250000e-02 0.0
8.750000e-01 1.250000e-02 0.0
8.875000e-01 1.250000e-02 0.0
9.000000e-01 1.250000e-02 0.0
9.125000e-01 1.250000e-02 0.0
9.250000e-01 1.250000e-02 0.0
9.375000e-01 1.250000e-02 0.0
9.500000e-01 1.250000e-02 0.0
9.625000e-01 1.250000e-02 0.0
9.750000e-01 1.250000e-02 0.0
9.875000e-01 1.250000e-02 0.0
1.000000e+00 1.250000e-02 0.0
0.000000e+00 2.500000e-02 0.0
1.250000e-02 2.500000e-02 0.0
2.500000e-02 2.500000e-02 0.0
3.750000e-02 2.500000e-02 0.0
5.000000e-02 2.500000e-02 0.0
6.250000e-02 2.500000e-02 0.0
7.500000e-02 2.500000e-02 0.0
8.750000e-02 2.500000e-02 0.0
1.000000e-01 2.500000e-02 0.0
1.125000e-01 2.500000e-02 0.0
1.250000e-01 2.500000e-02 0.0
1.375000e-01 2.500000e-02 0.0
1.500000e-01 2.500000e-02 0.0
1.625000e-01 2.500000e-02 0.0
1.750000e-01 2.500000e-02 0.0
1.875000e-01 2.500000e-02 0.0
2.000000e-01 2.500000e-02 0.0
2.125000e-01 2.500000e-02 0.0
2.250000e-01 2.500000e-02 0.0
2.375000e-01 2.500000e-02 0.0
2.500000e-01 2.500000e-02 0.0
2.625000e-01 2.500000e-02 0.0
2.750000e-01 2.500000e-02 0.0
2.875000e-01 2.500000e-02 0.0
3.000000e-01 2.500000e-02 0.0
3.125000e-01 2.500000e-02 0.0
3.250000e-01 2.500000e-02 0.0
3.375000e-01 2.500000e-02 0.0
3.500000e-01 2.500000e-02 0.0
3.625000e-01 2.500000e-02 0.0
3.750000e-01 2.500000e-02 0.0
3.875000e-01 2.500000e-02 0.0
4.000000e-01 2.500000e-02 0.0
4.125000e-01 2.500000e-02 0.0
4.250000e-01 2.500000e-02 0.0
4.375000e-01 2.500000e-02 0.0
4.500000e-01 2.500000e-02 0.0
4.625000e-01 2.500000e-02 0.0
4.750000e-01 2.500000e-02 0.0
4.875000e-01 2.500000e-02 0.0
5.000000e-01 2.500000e-02 0.0
5.125000e-01 2.500000e-02 0.0
5.250000e-01 2.500000e-02 0.0
5.375000e-01 2.500000e-02 0.0
5.500000e-01 2.500000e-02 0.0
5.625000e-01 2.500000e-02 0.0
5.750000e-01 2.500000e-02 0.0
5.875000e-01 2.500000e-02 0.0
6.000000e-01 2.500000e-02 0.0
6.125000e-01 2.500000e-02 0.0
6.250000e-01 2.500000e-02 0.0
6.375000e-01 2.500000e-02 0.0
6.500000e-01 2.500000e-02 0.0
6.625000e-01 2.500000e-02 0.0
6.750000e-01 2.500000e-02 0.0
6.875000e-01 2.500000e-02 0.0
7.000000e-01 2.500000e-02 0.0
7.125000e-01 2.500000e-02 0.0
7.250000e-01 2.500000e-02 0.0
7.375000e-01 2.500000e-02 0.0
7.500000e-01 2.500000e-02 0.0
7.625000e-01 2.500000e-02 0.0
7.750000e-01 2.500000e-02 0.0
7.875000e-01 2.500000e-02 0.0
8.000000e-01 2.500000e-02 0.0
8.125000e-01 2.500000e-02 0.0
8.250000e-01 2.500000e-02 0.0
8.375000e-01 2.500000e-02 0.0
8.500000e-01 2.500000e-02 0.0
8.625000e-01 2.500000e-02 0.0
8.750000e-01 2.500000e-02 0.0
8.875000e-01 2.500000e-02 0.0
9.000000e-01 2.500000e-02 0.0
9.125000e-01 2.500000e-02 0.0
9.250000e-01 2.500000e-02 0.0
9.375000e-01 2.500000e-02 0.0
9.500000e-01 2.500000e-02 0.0
9.625000e-01 2.500000e-02 0.0
9.750000e-01 2.500000e-02 0.0
9.875000e-01 2.500000e-02 0.0
1.000000e+00 2.500000e-02 0.0
0.000000e+00 3.750000e-02 0.0
1.250000e-02 3.750000e-02 0.0
2.500000e-02 3.750000e-02 0.0
3.750000e-02 3.750000e-02 0.0
5.000000e-02 3.750000e-02 0.0
6.250000e-02 3.750000e-02 0.0
7.500000e-02 3.750000e-02 0.0
8.750000e-02 3.750000e-02 0.0
1.000000e-01 3.750000e-02 0.0
1.125000e-01 3.750000e-02 0.0
1.250000e-01 3.750000e-02 0.0
1.375000e-01 3.750000e-02 0.0
1.500000e-01 3.750000e-02 0.0
1.625000e-01 3.750000e-02 0.0
1.750000e-01 3.750000e-02 0.0
1.875000e-01 3.750000e-02 0.0
2.000000e-01 3.750000e-02 0.0
2.125000e-01 3.750000e-02 0.0
2.250000e-01 3.750000e-02 0.0
2.375000e-01 3.750000e-02 0.0
2.500000e-01 3.750000e-02 0.0
2.625000e-01 3.750000e-02 0.0
2.750000e-01 3.750000e-02 0.0
2.875000e-01 3.750000e-02 0.0
3.000000e-01 3.750000e-02 0.0
3.125000e-01 3.750000e-02 0.0
3.250000e-01 3.750000e-02 0.0
3.375000e-01 3.750000e-02 0.0
3.500000e-01 3.750000e-02 0.0
3.625000e-01 3.750000e-02 0.0
3.750000e-01 3.750000e-02 0.0
3.875000e-01 3.750000e-02 0.0
4.000000e-01 3.750000e-02 0.0
4.125000e-01 3.750000e-02 0.0
4.250000e-01 3.750000e-02 0.0
4.375000e-01 3.750000e-02 0.0
4.500000e-01 3.750000e-02 0.0
4.625000e-01 3.750000e-02 0.0
4.750000e-01 3.750000e-02 0.0
4.875000e-01 3.750000e-02 0.0
5.000000e-01 3.750000e-02 0.0
5.125000e-01 3.750000e-02 0.0
5.250000e-01 3.750000e-02 0.0
5.375000e-01 3.750000e-02 0.0
5.500000e-01 3.750000e-02 0.0
5.625000e-01 3.750000e-02 0.0
5.750000e-01 3.750000e-02 0.0
5.875000e-01 3.750000e-02 0.0
6.000000e-01 3.750000e-02 0.0
6.125000e-01 3.750000e-02 0.0
6.250000e-01 3.750000e-02 0.0
6.375000e-01 3.750000e-02 0.0
6.500000e-01 3.750000e-02 0.0
6.625000e-01 3.750000e-02 0.0
6.750000e-01 3.750000e-02 0.0
6.875000e-01 3.750000e-02 0.0
7.000000e-01 3.750000e-02 0.0
7.125000e-01 3.750000e-02 0.0
7.250000e-01 3.750000e-02 0.0
7.375000e-01 3.750000e-02 0.0
7.500000e-01 3.750000e-02 0.0
7.625000e-01 3.750000e-02 0.0
7.750000e-01 3.750000e-02 0.0
7.875000e-01 3.750000e-02 0.0
8.000000e-01 3.750000e-02 0.0
8.125000e-01 3.750000e-02 0.0
8.250000e-01 3.750000e-02 0.0
8.375000e-01 3.750000e-02 0.0
8.500000e-01 3.750000e-02 0.0
8.625000e-01 3.750000e-02 0.0
8.750000e-01 3.750000e-02 0.0
8.875000e-01 3.750000e-02 0.0
9.000000e-01 3.750000e-02 0.0
9.125000e-01 3.750000e-02 0.0
9.250000e-01 3.750000e-02 0.0
9.375000e-01 3.750000e-02 0.0
9.500000e-01 3.750000e-02 0.0
9.625000e-01 3.750000e-02 0.0
9.750000e-01 3.750000e-02 0.0
9.875000e-01 3.750000e-02 0.0
1.000000e+00 3.750000e-02 0.0
0.000000e+00 5.000000e-02 0.0
1.250000e-02 5.000000e-02 0.0
2.500000e-02 5.000000e-02 0.0
3.750000e-02 5.000000e-02 0.0
5.000000e-02 5.000000e-02 0.0
[...]
CELL_DATA 6400
SCALARS Temperature double 1
LOOKUP_TABLE default
5.000000e-01
2.258757e-01
1.327488e-01
9.233275e-02
7.071433e-02
5.731929e-02
4.818171e-02
4.153548e-02
3.647791e-02
3.249785e-02
2.928316e-02
2.663206e-02
2.440814e-02
2.251583e-02
2.088612e-02
1.946797e-02
1.822275e-02
1.712074e-02
1.613867e-02
1.525805e-02
1.446402e-02
1.374451e-02
1.308959e-02
1.249102e-02
1.194194e-02
1.143653e-02
1.096988e-02
1.053780e-02
1.013667e-02
9.763374e-03
9.415217e-03
9.089837e-03
8.785168e-03
8.499393e-03
8.230909e-03
7.978293e-03
7.740285e-03
7.515756e-03
7.303700e-03
7.103215e-03
6.913488e-03
6.733789e-03
6.563457e-03
6.401896e-03
6.248563e-03
6.102969e-03
5.964665e-03
5.833246e-03
5.708341e-03
5.589610e-03
5.476746e-03
5.369466e-03
5.267512e-03
5.170647e-03
5.078655e-03
4.991339e-03
4.908519e-03
4.830029e-03
4.755720e-03
4.685452e-03
4.619104e-03
4.556560e-03
4.497719e-03
4.442489e-03
4.390788e-03
4.342543e-03
4.297688e-03
4.256168e-03
4.217933e-03
4.182944e-03
4.151167e-03
4.122574e-03
4.097148e-03
4.074874e-03
4.055747e-03
4.039768e-03
4.026944e-03
4.017288e-03
4.010822e-03
4.007572e-03
7.741243e-01
5.000000e-01
3.479843e-01
2.600950e-01
2.054538e-01
1.689848e-01
1.431559e-01
1.239815e-01
1.092114e-01
9.749614e-02
8.798225e-02
8.010552e-02
7.347864e-02
6.782717e-02
6.295137e-02
5.870247e-02
5.496739e-02
5.165871e-02
4.870777e-02
4.605989e-02
4.367102e-02
4.150526e-02
3.953306e-02
3.772991e-02
3.607526e-02
3.455180e-02
3.314482e-02
3.184175e-02
3.063178e-02
2.950558e-02
2.845503e-02
2.747307e-02
2.655348e-02
2.569082e-02
2.488025e-02
2.411752e-02
2.339883e-02
2.272077e-02
2.208034e-02
2.147480e-02
2.090172e-02
2.035889e-02
1.984434e-02
1.935624e-02
1.889299e-02
1.845309e-02
1.803521e-02
1.763810e-02
1.726067e-02
1.690188e-02
1.656081e-02
1.623660e-02
1.592848e-02
1.563573e-02
1.535771e-02
1.509380e-02
1.484349e-02
1.460625e-02
1.438164e-02
1.416925e-02
1.396870e-02
1.377965e-02
1.360179e-02
1.343484e-02
1.327855e-02
1.313271e-02
1.299712e-02
1.287161e-02
1.275602e-02
1.265025e-02
1.255419e-02
1.246775e-02
1.239089e-02
1.232355e-02
1.226573e-02
1.221742e-02
1.217866e-02
1.214947e-02
1.212992e-02
1.212009e-02
8.672512e-01
6.520157e-01
5.000000e-01
3.956866e-01
3.230686e-01
2.709784e-01
2.323587e-01
2.028272e-01
1.796247e-01
1.609670e-01
1.456656e-01
1.329047e-01
1.221091e-01
1.128629e-01
1.048585e-01
9.786397e-02
9.170147e-02
8.623229e-02
8.134679e-02
7.695723e-02
7.299255e-02
6.939465e-02
6.611555e-02
6.311529e-02
6.036034e-02
5.782235e-02
5.547722e-02
5.330430e-02
5.128582e-02
4.940639e-02
4.765264e-02
4.601288e-02
4.447688e-02
4.303560e-02
4.168106e-02
4.040619e-02
3.920470e-02
3.807096e-02
3.699994e-02
3.598713e-02
3.502848e-02
3.412033e-02
3.325936e-02
3.244259e-02
3.166731e-02
3.093105e-02
3.023156e-02
2.956681e-02
2.893494e-02
2.833424e-02
2.776316e-02
2.722029e-02
2.670432e-02
2.621407e-02
2.574845e-02
2.530646e-02
2.488720e-02
2.448984e-02
2.411362e-02
2.375784e-02
2.342189e-02
2.310519e-02
2.280723e-02
2.252754e-02
2.226571e-02
2.202138e-02
2.179420e-02
2.158391e-02
2.139026e-02
2.121304e-02
2.105208e-02
2.090725e-02
2.077846e-02
2.066564e-02
2.056875e-02
2.048781e-02
2.042284e-02
2.037393e-02
2.034118e-02
2.032471e-02
9.076672e-01
7.399050e-01
6.043134e-01
5.000000e-01
4.207437e-01
3.601454e-01
3.131204e-01
2.759720e-01
2.460924e-01
2.216492e-01
2.013442e-01
1.842443e-01
1.696679e-01
1.571083e-01
1.461831e-01
1.365989e-01
1.281275e-01
1.205888e-01
1.138395e-01
1.077635e-01
1.022666e-01
9.727110e-02
9.271258e-02
8.853715e-02
8.469946e-02
8.116102e-02
7.788899e-02
7.485520e-02
7.203533e-02
6.940831e-02
6.695576e-02
6.466162e-02
6.251177e-02
6.049375e-02
5.859656e-02
5.681041e-02
5.512658e-02
5.353729e-02
5.203557e-02
5.061516e-02
4.927043e-02
4.799629e-02
4.678814e-02
4.564183e-02
4.455357e-02
4.351995e-02
4.253782e-02
4.160436e-02
4.071696e-02
3.987325e-02
3.907106e-02
3.830842e-02
3.758352e-02
3.689469e-02
3.624041e-02
3.561931e-02
3.503010e-02
3.447163e-02
3.394284e-02
3.344277e-02
3.297053e-02
3.252533e-02
3.210646e-02
3.171326e-02
3.134515e-02
3.100162e-02
3.068221e-02
3.038654e-02
3.011424e-02
2.986505e-02
2.963872e-02
2.943507e-02
2.925396e-02
2.909530e-02
2.895906e-02
2.884523e-02
2.875388e-02
2.868509e-02
2.863903e-02
2.861587e-02
9.292857e-01
7.945462e-01
6.769314e-01
5.792563e-01
5.000000e-01
4.361070e-01
3.844374e-01
3.423067e-01
3.075883e-01
2.786524e-01
2.542653e-01
2.334933e-01
2.156262e-01
2.001192e-01
1.865502e-01
1.745887e-01
1.639730e-01
1.544941e-01
1.459830e-01
1.383023e-01
1.313387e-01
1.249987e-01
1.192040e-01
1.138888e-01
1.089974e-01
1.044825e-01
1.003034e-01
9.642524e-02
9.281767e-02
8.945443e-02
8.631255e-02
8.337189e-02
8.061472e-02
7.802539e-02
7.559001e-02
7.329624e-02
7.113307e-02
6.909066e-02
6.716018e-02
6.533370e-02
6.360406e-02
6.196481e-02
6.041010e-02
5.893465e-02
5.753365e-02
5.620272e-02
5.493790e-02
5.373554e-02
5.259235e-02
5.150528e-02
5.047159e-02
4.948873e-02
4.855439e-02
4.766645e-02
4.682297e-02
4.602218e-02
4.526245e-02
4.454229e-02
4.386036e-02
4.321540e-02
4.260631e-02
4.203206e-02
4.149173e-02
4.098449e-02
4.050959e-02
4.006639e-02
3.965429e-02
3.927279e-02
3.892145e-02
3.859991e-02
3.830785e-02
3.804506e-02
3.781134e-02
3.760660e-02
3.743078e-02
3.728388e-02
3.716599e-02
3.707722e-02
3.701777e-02
3.698789e-02
9.426807e-01
8.310152e-01
7.290216e-01
6.398546e-01
5.638930e-01
5.000000e-01
4.464666e-01
4.015374e-01
3.636417e-01
3.314628e-01
3.039325e-01
2.801974e-01
2.595792e-01
2.415393e-01
2.256479e-01
2.115608e-01
1.989999e-01
1.877393e-01
1.775940e-01
1.684117e-01
1.600658e-01
1.524504e-01
1.454765e-01
1.390688e-01
1.331633e-01
1.277049e-01
1.226465e-01
1.179473e-01
1.135719e-01
1.094892e-01
1.056722e-01
1.020971e-01
9.874296e-02
9.559110e-02
9.262504e-02
8.983005e-02
8.719300e-02
8.470211e-02
8.234682e-02
8.011761e-02
7.800589e-02
7.600391e-02
7.410464e-02
7.230171e-02
7.058933e-02
6.896223e-02
6.741560e-02
6.594507e-02
6.454663e-02
6.321662e-02
6.195170e-02
6.074880e-02
5.960513e-02
5.851810e-02
5.748538e-02
5.650480e-02
5.557440e-02
5.469237e-02
5.385707e-02
5.306700e-02
5.232080e-02
5.161723e-02
5.095517e-02
5.033362e-02
4.975167e-02
4.920851e-02
4.870345e-02
4.823587e-02
4.780524e-02
4.741111e-02
4.705311e-02
4.673097e-02
4.644447e-02
4.619348e-02
4.597793e-02
4.579785e-02
4.565331e-02
4.554449e-02
4.547160e-02
4.543497e-02
9.518183e-01
8.568441e-01
7.676413e-01
6.868796e-01
6.155626e-01
5.535334e-01
5.000000e-01
4.539165e-01
4.142087e-01
3.798861e-01
3.500849e-01
3.240748e-01
3.012488e-01
2.811059e-01
2.632343e-01
2.472953e-01
2.330097e-01
2.201462e-01
2.085126e-01
1.979485e-01
1.883190e-01
1.795103e-01
1.714258e-01
1.639832e-01
1.571118e-01
1.507510e-01
1.448481e-01
1.393575e-01
1.342394e-01
1.294590e-01
1.249855e-01
1.207921e-01
1.168548e-01
1.131524e-01
1.096660e-01
1.063788e-01
1.032757e-01
1.003431e-01
9.756884e-02
9.494199e-02
9.245262e-02
9.009175e-02
8.785125e-02
8.572372e-02
8.370245e-02
8.178132e-02
7.995474e-02
7.821761e-02
7.656528e-02
7.499348e-02
7.349830e-02
7.207619e-02
7.072385e-02
6.943830e-02
6.821678e-02
6.705678e-02
6.595599e-02
6.491231e-02
6.392381e-02
6.298874e-02
6.210549e-02
6.127263e-02
6.048884e-02
5.975294e-02
5.906388e-02
5.842072e-02
5.782263e-02
5.726888e-02
5.675887e-02
5.629206e-02
5.586803e-02
5.548646e-02
5.514709e-02
5.484977e-02
5.459443e-02
5.438110e-02
5.420988e-02
5.408095e-02
5.399461e-02
5.395121e-02
9.584645e-01
8.760185e-01
7.971728e-01
7.240280e-01
6.576933e-01
5.984626e-01
5.460835e-01
5.000000e-01
4.595284e-01
4.239665e-01
3.926529e-01
3.649943e-01
3.404733e-01
3.186464e-01
2.991369e-01
2.816263e-01
2.658460e-01
2.515694e-01
2.386048e-01
2.267898e-01
2.159861e-01
2.060759e-01
1.969583e-01
1.885463e-01
1.807649e-01
1.735491e-01
1.668425e-01
1.605955e-01
1.547650e-01
1.493129e-01
1.442057e-01
1.394135e-01
1.349102e-01
1.306721e-01
1.266784e-01
1.229104e-01
1.193511e-01
1.159856e-01
1.128001e-01
1.097824e-01
1.069213e-01
1.042068e-01
1.016296e-01
9.918158e-02
9.685500e-02
9.464298e-02
9.253921e-02
9.053792e-02
8.863382e-02
8.682210e-02
8.509831e-02
8.345841e-02
8.189866e-02
8.041567e-02
7.900631e-02
7.766771e-02
7.639724e-02
7.519251e-02
7.405133e-02
7.297170e-02
7.195179e-02
7.098995e-02
7.008469e-02
6.923467e-02
6.843868e-02
6.769566e-02
6.700464e-02
6.636483e-02
6.577550e-02
6.523608e-02
6.474606e-02
6.430508e-02
6.391286e-02
6.356923e-02
6.327411e-02
6.302754e-02
6.282963e-02
6.268061e-02
6.258080e-02
6.253064e-02
9.635221e-01
8.907886e-01
8.203753e-01
7.539076e-01
6.924117e-01
6.363583e-01
5.857913e-01
5.404715e-01
5.000000e-01
4.639065e-01
4.317083e-01
4.029437e-01
3.771896e-01
3.540680e-01
3.332474e-01
3.144391e-01
2.973938e-01
2.818969e-01
2.677633e-01
2.548341e-01
2.429721e-01
2.320589e-01
2.219919e-01
2.126821e-01
2.040522e-01
1.960344e-01
1.885697e-01
1.816059e-01
1.750973e-01
1.690034e-01
1.632883e-01
1.579202e-01
1.528708e-01
1.481146e-01
1.436291e-01
1.393938e-01
1.353904e-01
1.316025e-01
1.280152e-01
1.246149e-01
1.213895e-01
1.183279e-01
1.154199e-01
1.126565e-01
1.100292e-01
1.075304e-01
1.051531e-01
1.028909e-01
1.007379e-01
9.868881e-02
9.673869e-02
9.488304e-02
9.311769e-02
9.143887e-02
8.984309e-02
8.832715e-02
8.688813e-02
8.552335e-02
8.423036e-02
8.300694e-02
8.185104e-02
8.076083e-02
7.973464e-02
7.877096e-02
7.786845e-02
7.702591e-02
7.624229e-02
7.551667e-02
7.484826e-02
7.423641e-02
7.368057e-02
7.318033e-02
7.273539e-02
7.234554e-02
7.201073e-02
7.173097e-02
7.150643e-02
7.133735e-02
7.122411e-02
7.116719e-02
9.675022e-01
9.025039e-01
8.390330e-01
7.783508e-01
7.213476e-01
6.685372e-01
6.201139e-01
5.760335e-01
5.360934e-01
5.000000e-01
4.674169e-01
4.379988e-01
4.114116e-01
3.873441e-01
3.655132e-01
3.456655e-01
3.275762e-01
3.110478e-01
2.959069e-01
2.820018e-01
2.691999e-01
2.573854e-01
2.464567e-01
2.363249e-01
2.269118e-01
2.181489e-01
2.099754e-01
2.023379e-01
1.951888e-01
1.884861e-01
1.821922e-01
1.762737e-01
1.707006e-01
1.654462e-01
1.604863e-01
1.557994e-01
1.513657e-01
1.471677e-01
1.431895e-01
1.394164e-01
1.358354e-01
1.324344e-01
1.292026e-01
1.261301e-01
1.232076e-01
1.204270e-01
1.177806e-01
1.152615e-01
1.128633e-01
1.105801e-01
1.084065e-01
1.063377e-01
1.043691e-01
1.024966e-01
1.007163e-01
9.902470e-02
9.741865e-02
9.589518e-02
9.445162e-02
9.308551e-02
9.179461e-02
9.057691e-02
8.943056e-02
8.835392e-02
8.734551e-02
8.640402e-02
8.552828e-02
8.471729e-02
8.397019e-02
8.328625e-02
8.266489e-02
8.210565e-02
8.160820e-02
8.117233e-02
8.079797e-02
8.048517e-02
8.023409e-02
8.004503e-02
7.991841e-02
7.985476e-02
9.707168e-01
9.120177e-01
8.543344e-01
7.986558e-01
7.457347e-01
6.960675e-01
6.499151e-01
6.073471e-01
5.682917e-01
5.325831e-01
5.000000e-01
4.702941e-01
4.432103e-01
4.184998e-01
3.959276e-01
3.752768e-01
3.563503e-01
3.389704e-01
3.229785e-01
3.082333e-01
2.946096e-01
2.819963e-01
2.702951e-01
2.594190e-01
2.492908e-01
2.398420e-01
2.310119e-01
2.227462e-01
2.149969e-01
2.077208e-01
2.008794e-01
1.944382e-01
1.883661e-01
1.826352e-01
1.772204e-01
1.720991e-01
1.672506e-01
1.626563e-01
1.582995e-01
1.541647e-01
1.502379e-01
1.465065e-01
1.429589e-01
1.395844e-01
1.363732e-01
1.333167e-01
1.304065e-01
1.276352e-01
1.249960e-01
1.224826e-01
1.200891e-01
1.178103e-01
1.156413e-01
1.135776e-01
1.116151e-01
1.097500e-01
1.079789e-01
1.062984e-01
1.047059e-01
1.031985e-01
1.017738e-01
1.004298e-01
9.916434e-02
9.797567e-02
9.686220e-02
9.582250e-02
9.485532e-02
9.395957e-02
9.313431e-02
9.237877e-02
9.169230e-02
9.107442e-02
9.052478e-02
9.004316e-02
8.962950e-02
8.928383e-02
8.900637e-02
8.879744e-02
8.865751e-02
8.858717e-02
9.733679e-01
9.198945e-01
8.670953e-01
8.157557e-01
7.665067e-01
7.198026e-01
6.759251e-01
6.350057e-01
5.970563e-01
5.620012e-01
5.297059e-01
5.000000e-01
4.726953e-01
4.475984e-01
4.245194e-01
4.032770e-01
3.837019e-01
3.656380e-01
3.489430e-01
3.334882e-01
3.191573e-01
3.058462e-01
2.934613e-01
2.819191e-01
2.711445e-01
2.610706e-01
2.516375e-01
2.427912e-01
2.344837e-01
2.266714e-01
2.193156e-01
2.123811e-01
2.058362e-01
1.996523e-01
1.938036e-01
1.882666e-01
1.830201e-01
1.780446e-01
1.733228e-01
1.688384e-01
1.645769e-01
1.605250e-01
1.566705e-01
1.530021e-01
1.495096e-01
1.461837e-01
1.430157e-01
1.399977e-01
1.371224e-01
1.343832e-01
1.317739e-01
1.292888e-01
1.269228e-01
1.246710e-01
1.225290e-01
1.204929e-01
1.185589e-01
1.167236e-01
1.149839e-01
1.133369e-01
1.117801e-01
1.103111e-01
1.089278e-01
1.076283e-01
1.064108e-01
1.052739e-01
1.042161e-01
1.032364e-01
1.023336e-01
1.015071e-01
1.007560e-01
1.000800e-01
9.947860e-02
9.895159e-02
9.849891e-02
9.812063e-02
9.781699e-02
9.758833e-02
9.743518e-02
9.735820e-02
9.755919e-01
9.265214e-01
8.778909e-01
8.303321e-01
7.843738e-01
7.404208e-01
6.987512e-01
6.595266e-01
6.228104e-01
5.885884e-01
5.567897e-01
5.273047e-01
5.000000e-01
4.747298e-01
4.513442e-01
4.296952e-01
4.096403e-01
3.910451e-01
3.737843e-01
3.577425e-01
3.428141e-01
3.289026e-01
3.159208e-01
3.037894e-01
2.924370e-01
2.817990e-01
2.718171e-01
2.624385e-01
2.536158e-01
2.453059e-01
2.374700e-01
2.300730e-01
2.230828e-01
2.164706e-01
2.102102e-01
2.042775e-01
1.986509e-01
1.933104e-01
1.882382e-01
1.834174e-01
1.788332e-01
1.744716e-01
1.703199e-01
1.663665e-01
1.626008e-01
1.590128e-01
1.555936e-01
1.523350e-01
1.492292e-01
1.462692e-01
1.434486e-01
1.407614e-01
1.382021e-01
1.357657e-01
1.334475e-01
1.312432e-01
1.291490e-01
1.271612e-01
1.252766e-01
1.234920e-01
1.218049e-01
1.202126e-01
1.187130e-01
1.173040e-01
1.159837e-01
1.147507e-01
1.136033e-01
1.125405e-01
1.115611e-01
1.106643e-01
1.098494e-01
1.091158e-01
1.084631e-01
1.078911e-01
1.073998e-01
1.069892e-01
1.066596e-01
1.064114e-01
1.062452e-01
1.061616e-01
9.774842e-01
9.321728e-01
8.871371e-01
8.428917e-01
7.998808e-01
7.584607e-01
7.188941e-01
6.813535e-01
6.459319e-01
6.126559e-01
5.815002e-01
5.524015e-01
5.252702e-01
5.000000e-01
4.764758e-01
4.545794e-01
4.341932e-01
4.152035e-01
3.975021e-01
3.809871e-01
3.655638e-01
3.511446e-01
3.376491e-01
3.250035e-01
3.131404e-01
3.019984e-01
2.915217e-01
2.816592e-01
2.723648e-01
2.635963e-01
2.553155e-01
2.474875e-01
2.400805e-01
2.330657e-01
2.264166e-01
2.201092e-01
2.141213e-01
2.084330e-01
2.030258e-01
1.978828e-01
1.929886e-01
1.883288e-01
1.838905e-01
1.796618e-01
1.756314e-01
1.717894e-01
1.681264e-01
1.646337e-01
1.613034e-01
1.581282e-01
1.551013e-01
1.522166e-01
1.494683e-01
1.468511e-01
1.443602e-01
1.419910e-01
1.397396e-01
1.376020e-01
1.355749e-01
1.336551e-01
1.318397e-01
1.301260e-01
1.285118e-01
1.269949e-01
1.255733e-01
1.242454e-01
1.230097e-01
1.218649e-01
1.208098e-01
1.198436e-01
1.189655e-01
1.181750e-01
1.174717e-01
1.168553e-01
1.163257e-01
1.158832e-01
1.155280e-01
1.152604e-01
1.150812e-01
1.149912e-01
9.791139e-01
9.370486e-01
8.951415e-01
8.538169e-01
8.134498e-01
7.743520e-01
7.367657e-01
7.008631e-01
6.667526e-01
6.344868e-01
6.040724e-01
5.754805e-01
5.486558e-01
5.235241e-01
5.000000e-01
4.779909e-01
4.574021e-01
4.381389e-01
4.201092e-01
4.032247e-01
3.874016e-01
3.725615e-01
3.586313e-01
3.455430e-01
3.332340e-01
3.216467e-01
3.107281e-01
3.004297e-01
2.907069e-01
2.815190e-01
2.728286e-01
2.646016e-01
2.568069e-01
2.494156e-01
2.424017e-01
2.357411e-01
2.294117e-01
2.233933e-01
2.176674e-01
2.122168e-01
2.070259e-01
2.020803e-01
1.973666e-01
1.928726e-01
1.885871e-01
1.844995e-01
1.806003e-01
1.768807e-01
1.733325e-01
1.699480e-01
1.667204e-01
1.636432e-01
1.607105e-01
1.579168e-01
1.552570e-01
1.527266e-01
1.503211e-01
1.480368e-01
1.458700e-01
1.438174e-01
1.418761e-01
1.400432e-01
1.383163e-01
1.366933e-01
1.351720e-01
1.337507e-01
1.324280e-01
1.312023e-01
1.300727e-01
1.290381e-01
1.280978e-01
1.272511e-01
1.264978e-01
1.258375e-01
1.252703e-01
1.247962e-01
1.244157e-01
1.241290e-01
1.239371e-01
1.238406e-01
9.805320e-01
9.412975e-01
9.021360e-01
8.634011e-01
8.254113e-01
7.884392e-01
7.527046e-01
7.183737e-01
6.855609e-01
6.543345e-01
6.247231e-01
5.967229e-01
5.703048e-01
5.454206e-01
5.220090e-01
5.000000e-01
4.793184e-01
4.598871e-01
4.416289e-01
4.244682e-01
4.083323e-01
3.931515e-01
3.788603e-01
3.653969e-01
3.527039e-01
3.407278e-01
3.294188e-01
3.187313e-01
3.086227e-01
2.990540e-01
2.899893e-01
2.813955e-01
2.732421e-01
2.655010e-01
2.581464e-01
2.511546e-01
2.445037e-01
2.381736e-01
2.321457e-01
2.264029e-01
2.209294e-01
2.157107e-01
2.107333e-01
2.059848e-01
2.014538e-01
1.971297e-01
1.930027e-01
1.890637e-01
1.853045e-01
1.817172e-01
1.782947e-01
1.750304e-01
1.719183e-01
1.689526e-01
1.661282e-01
1.634403e-01
1.608845e-01
1.584567e-01
1.561532e-01
1.539706e-01
1.519058e-01
1.499560e-01
1.481187e-01
1.463914e-01
1.447722e-01
1.432593e-01
1.418510e-01
1.405459e-01
1.393429e-01
1.382410e-01
1.372394e-01
1.363375e-01
1.355349e-01
1.348314e-01
1.342271e-01
1.337219e-01
1.333164e-01
1.330110e-01
1.328064e-01
1.327036e-01
9.817772e-01
9.450326e-01
9.082985e-01
8.718725e-01
8.360270e-01
8.010001e-01
7.669903e-01
7.341539e-01
7.026061e-01
6.724237e-01
6.436497e-01
6.162981e-01
5.903597e-01
5.658068e-01
5.425979e-01
5.206816e-01
5.000000e-01
4.804913e-01
4.620921e-01
4.447385e-01
4.283681e-01
4.129201e-01
3.983362e-01
3.845610e-01
3.715424e-01
3.592311e-01
3.475812e-01
3.365497e-01
3.260967e-01
3.161853e-01
3.067811e-01
2.978522e-01
2.893692e-01
2.813048e-01
2.736339e-01
2.663333e-01
2.593813e-01
2.527581e-01
2.464453e-01
2.404259e-01
2.346842e-01
2.292055e-01
2.239766e-01
2.189847e-01
2.142185e-01
2.096673e-01
2.053211e-01
2.011708e-01
1.972078e-01
1.934244e-01
1.898133e-01
1.863677e-01
1.830814e-01
1.799486e-01
1.769641e-01
1.741229e-01
1.714205e-01
1.688527e-01
1.664158e-01
1.641062e-01
1.619208e-01
1.598566e-01
1.579111e-01
1.560818e-01
1.543666e-01
1.527638e-01
1.512715e-01
1.498885e-01
1.486135e-01
1.474454e-01
1.463836e-01
1.454274e-01
1.445765e-01
1.438306e-01
1.431897e-01
1.426540e-01
1.422239e-01
1.419000e-01
1.416830e-01
1.415740e-01
9.828793e-01
9.483413e-01
9.137677e-01
8.794111e-01
8.455059e-01
8.122607e-01
7.798538e-01
7.484305e-01
7.181031e-01
6.889521e-01
6.610295e-01
6.343620e-01
6.089549e-01
5.847964e-01
5.618611e-01
5.401129e-01
5.195086e-01
5.000000e-01
4.815355e-01
4.640625e-01
4.475277e-01
4.318789e-01
4.170649e-01
4.030365e-01
3.897468e-01
3.771510e-01
3.652070e-01
3.538750e-01
3.431177e-01
3.329004e-01
3.231905e-01
3.139577e-01
3.051738e-01
2.968126e-01
2.888496e-01
2.812624e-01
2.740298e-01
2.671324e-01
2.605520e-01
2.542720e-01
2.482767e-01
2.425517e-01
2.370835e-01
2.318598e-01
2.268690e-01
2.221003e-01
2.175439e-01
2.131905e-01
2.090316e-01
2.050592e-01
2.012659e-01
1.976450e-01
1.941901e-01
1.908954e-01
1.877555e-01
1.847654e-01
1.819205e-01
1.792165e-01
1.766496e-01
1.742162e-01
1.719130e-01
1.697372e-01
1.676859e-01
1.657569e-01
1.639479e-01
1.622570e-01
1.606826e-01
1.592232e-01
1.578776e-01
1.566448e-01
1.555240e-01
1.545145e-01
1.536161e-01
1.528285e-01
1.521517e-01
1.515861e-01
1.511319e-01
1.507898e-01
1.505607e-01
1.504455e-01
9.838613e-01
9.512922e-01
9.186532e-01
8.861605e-01
8.540170e-01
8.224060e-01
7.914874e-01
7.613952e-01
7.322366e-01
7.040931e-01
6.770214e-01
6.510569e-01
6.262157e-01
6.024979e-01
5.798907e-01
5.583711e-01
5.379079e-01
5.184644e-01
5.000000e-01
4.824715e-01
4.658346e-01
4.500446e-01
4.350573e-01
4.208294e-01
4.073191e-01
3.944862e-01
3.822923e-01
3.707009e-01
3.596776e-01
3.491899e-01
3.392072e-01
3.297009e-01
3.206442e-01
3.120120e-01
3.037810e-01
2.959292e-01
2.884365e-01
2.812836e-01
2.744532e-01
2.679286e-01
2.616945e-01
2.557368e-01
2.500422e-01
2.445982e-01
2.393936e-01
2.344176e-01
2.296602e-01
2.251123e-01
2.207652e-01
2.166111e-01
2.126425e-01
2.088526e-01
2.052349e-01
2.017837e-01
1.984934e-01
1.953589e-01
1.923758e-01
1.895395e-01
1.868463e-01
1.842925e-01
1.818747e-01
1.795901e-01
1.774358e-01
1.754094e-01
1.735088e-01
1.717320e-01
1.700773e-01
1.685433e-01
1.671286e-01
1.658324e-01
1.646538e-01
1.635922e-01
1.626473e-01
1.618188e-01
1.611070e-01
1.605119e-01
1.600341e-01
1.596742e-01
1.594331e-01
1.593120e-01
9.847420e-01
9.539401e-01
9.230428e-01
8.922365e-01
8.616977e-01
8.315883e-01
8.020515e-01
7.732102e-01
7.451658e-01
7.179982e-01
6.917666e-01
6.665118e-01
6.422574e-01