# vtk DataFile Version 3.0
QUICK scheme_Pe = 10,Grid 41x41,004470.vtk
ASCII
DATASET STRUCTURED_GRID
DIMENSIONS 41 41 1
POINTS 1681 double
0.000000e+00 0.000000e+00 0.0
2.500000e-02 0.000000e+00 0.0
5.000000e-02 0.000000e+00 0.0
7.500000e-02 0.000000e+00 0.0
1.000000e-01 0.000000e+00 0.0
1.250000e-01 0.000000e+00 0.0
1.500000e-01 0.000000e+00 0.0
1.750000e-01 0.000000e+00 0.0
2.000000e-01 0.000000e+00 0.0
2.250000e-01 0.000000e+00 0.0
2.500000e-01 0.000000e+00 0.0
2.750000e-01 0.000000e+00 0.0
3.000000e-01 0.000000e+00 0.0
3.250000e-01 0.000000e+00 0.0
3.500000e-01 0.000000e+00 0.0
3.750000e-01 0.000000e+00 0.0
4.000000e-01 0.000000e+00 0.0
4.250000e-01 0.000000e+00 0.0
4.500000e-01 0.000000e+00 0.0
4.750000e-01 0.000000e+00 0.0
5.000000e-01 0.000000e+00 0.0
5.250000e-01 0.000000e+00 0.0
5.500000e-01 0.000000e+00 0.0
5.750000e-01 0.000000e+00 0.0
6.000000e-01 0.000000e+00 0.0
6.250000e-01 0.000000e+00 0.0
6.500000e-01 0.000000e+00 0.0
6.750000e-01 0.000000e+00 0.0
7.000000e-01 0.000000e+00 0.0
7.250000e-01 0.000000e+00 0.0
7.500000e-01 0.000000e+00 0.0
7.750000e-01 0.000000e+00 0.0
8.000000e-01 0.000000e+00 0.0
8.250000e-01 0.000000e+00 0.0
8.500000e-01 0.000000e+00 0.0
8.750000e-01 0.000000e+00 0.0
9.000000e-01 0.000000e+00 0.0
9.250000e-01 0.000000e+00 0.0
9.500000e-01 0.000000e+00 0.0
9.750000e-01 0.000000e+00 0.0
1.000000e+00 0.000000e+00 0.0
0.000000e+00 2.500000e-02 0.0
2.500000e-02 2.500000e-02 0.0
5.000000e-02 2.500000e-02 0.0
7.500000e-02 2.500000e-02 0.0
1.000000e-01 2.500000e-02 0.0
1.250000e-01 2.500000e-02 0.0
1.500000e-01 2.500000e-02 0.0
1.750000e-01 2.500000e-02 0.0
2.000000e-01 2.500000e-02 0.0
2.250000e-01 2.500000e-02 0.0
2.500000e-01 2.500000e-02 0.0
2.750000e-01 2.500000e-02 0.0
3.000000e-01 2.500000e-02 0.0
3.250000e-01 2.500000e-02 0.0
3.500000e-01 2.500000e-02 0.0
3.750000e-01 2.500000e-02 0.0
4.000000e-01 2.500000e-02 0.0
4.250000e-01 2.500000e-02 0.0
4.500000e-01 2.500000e-02 0.0
4.750000e-01 2.500000e-02 0.0
5.000000e-01 2.500000e-02 0.0
5.250000e-01 2.500000e-02 0.0
5.500000e-01 2.500000e-02 0.0
5.750000e-01 2.500000e-02 0.0
6.000000e-01 2.500000e-02 0.0
6.250000e-01 2.500000e-02 0.0
6.500000e-01 2.500000e-02 0.0
6.750000e-01 2.500000e-02 0.0
7.000000e-01 2.500000e-02 0.0
7.250000e-01 2.500000e-02 0.0
7.500000e-01 2.500000e-02 0.0
7.750000e-01 2.500000e-02 0.0
8.000000e-01 2.500000e-02 0.0
8.250000e-01 2.500000e-02 0.0
8.500000e-01 2.500000e-02 0.0
8.750000e-01 2.500000e-02 0.0
9.000000e-01 2.500000e-02 0.0
9.250000e-01 2.500000e-02 0.0
9.500000e-01 2.500000e-02 0.0
9.750000e-01 2.500000e-02 0.0
1.000000e+00 2.500000e-02 0.0
0.000000e+00 5.000000e-02 0.0
2.500000e-02 5.000000e-02 0.0
5.000000e-02 5.000000e-02 0.0
7.500000e-02 5.000000e-02 0.0
1.000000e-01 5.000000e-02 0.0
1.250000e-01 5.000000e-02 0.0
1.500000e-01 5.000000e-02 0.0
1.750000e-01 5.000000e-02 0.0
2.000000e-01 5.000000e-02 0.0
2.250000e-01 5.000000e-02 0.0
2.500000e-01 5.000000e-02 0.0
2.750000e-01 5.000000e-02 0.0
3.000000e-01 5.000000e-02 0.0
3.250000e-01 5.000000e-02 0.0
3.500000e-01 5.000000e-02 0.0
3.750000e-01 5.000000e-02 0.0
4.000000e-01 5.000000e-02 0.0
4.250000e-01 5.000000e-02 0.0
4.500000e-01 5.000000e-02 0.0
4.750000e-01 5.000000e-02 0.0
5.000000e-01 5.000000e-02 0.0
5.250000e-01 5.000000e-02 0.0
5.500000e-01 5.000000e-02 0.0
5.750000e-01 5.000000e-02 0.0
6.000000e-01 5.000000e-02 0.0
6.250000e-01 5.000000e-02 0.0
6.500000e-01 5.000000e-02 0.0
6.750000e-01 5.000000e-02 0.0
7.000000e-01 5.000000e-02 0.0
7.250000e-01 5.000000e-02 0.0
7.500000e-01 5.000000e-02 0.0
7.750000e-01 5.000000e-02 0.0
8.000000e-01 5.000000e-02 0.0
8.250000e-01 5.000000e-02 0.0
8.500000e-01 5.000000e-02 0.0
8.750000e-01 5.000000e-02 0.0
9.000000e-01 5.000000e-02 0.0
9.250000e-01 5.000000e-02 0.0
9.500000e-01 5.000000e-02 0.0
9.750000e-01 5.000000e-02 0.0
1.000000e+00 5.000000e-02 0.0
0.000000e+00 7.500000e-02 0.0
2.500000e-02 7.500000e-02 0.0
5.000000e-02 7.500000e-02 0.0
7.500000e-02 7.500000e-02 0.0
1.000000e-01 7.500000e-02 0.0
1.250000e-01 7.500000e-02 0.0
1.500000e-01 7.500000e-02 0.0
1.750000e-01 7.500000e-02 0.0
2.000000e-01 7.500000e-02 0.0
2.250000e-01 7.500000e-02 0.0
2.500000e-01 7.500000e-02 0.0
2.750000e-01 7.500000e-02 0.0
3.000000e-01 7.500000e-02 0.0
3.250000e-01 7.500000e-02 0.0
3.500000e-01 7.500000e-02 0.0
3.750000e-01 7.500000e-02 0.0
4.000000e-01 7.500000e-02 0.0
4.250000e-01 7.500000e-02 0.0
4.500000e-01 7.500000e-02 0.0
4.750000e-01 7.500000e-02 0.0
5.000000e-01 7.500000e-02 0.0
5.250000e-01 7.500000e-02 0.0
5.500000e-01 7.500000e-02 0.0
5.750000e-01 7.500000e-02 0.0
6.000000e-01 7.500000e-02 0.0
6.250000e-01 7.500000e-02 0.0
6.500000e-01 7.500000e-02 0.0
6.750000e-01 7.500000e-02 0.0
7.000000e-01 7.500000e-02 0.0
7.250000e-01 7.500000e-02 0.0
7.500000e-01 7.500000e-02 0.0
7.750000e-01 7.500000e-02 0.0
8.000000e-01 7.500000e-02 0.0
8.250000e-01 7.500000e-02 0.0
8.500000e-01 7.500000e-02 0.0
8.750000e-01 7.500000e-02 0.0
9.000000e-01 7.500000e-02 0.0
9.250000e-01 7.500000e-02 0.0
9.500000e-01 7.500000e-02 0.0
9.750000e-01 7.500000e-02 0.0
1.000000e+00 7.500000e-02 0.0
0.000000e+00 1.000000e-01 0.0
2.500000e-02 1.000000e-01 0.0
5.000000e-02 1.000000e-01 0.0
7.500000e-02 1.000000e-01 0.0
1.000000e-01 1.000000e-01 0.0
1.250000e-01 1.000000e-01 0.0
1.500000e-01 1.000000e-01 0.0
1.750000e-01 1.000000e-01 0.0
2.000000e-01 1.000000e-01 0.0
2.250000e-01 1.000000e-01 0.0
2.500000e-01 1.000000e-01 0.0
2.750000e-01 1.000000e-01 0.0
3.000000e-01 1.000000e-01 0.0
3.250000e-01 1.000000e-01 0.0
3.500000e-01 1.000000e-01 0.0
3.750000e-01 1.000000e-01 0.0
4.000000e-01 1.000000e-01 0.0
4.250000e-01 1.000000e-01 0.0
4.500000e-01 1.000000e-01 0.0
4.750000e-01 1.000000e-01 0.0
5.000000e-01 1.000000e-01 0.0
5.250000e-01 1.000000e-01 0.0
5.500000e-01 1.000000e-01 0.0
5.750000e-01 1.000000e-01 0.0
6.000000e-01 1.000000e-01 0.0
6.250000e-01 1.000000e-01 0.0
6.500000e-01 1.000000e-01 0.0
6.750000e-01 1.000000e-01 0.0
7.000000e-01 1.000000e-01 0.0
7.250000e-01 1.000000e-01 0.0
7.500000e-01 1.000000e-01 0.0
7.750000e-01 1.000000e-01 0.0
8.000000e-01 1.000000e-01 0.0
8.250000e-01 1.000000e-01 0.0
8.500000e-01 1.000000e-01 0.0
8.750000e-01 1.000000e-01 0.0
9.000000e-01 1.000000e-01 0.0
9.250000e-01 1.000000e-01 0.0
9.500000e-01 1.000000e-01 0.0
9.750000e-01 1.000000e-01 0.0
1.000000e+00 1.000000e-01 0.0
0.000000e+00 1.250000e-01 0.0
2.500000e-02 1.250000e-01 0.0
5.000000e-02 1.250000e-01 0.0
7.500000e-02 1.250000e-01 0.0
1.000000e-01 1.250000e-01 0.0
1.250000e-01 1.250000e-01 0.0
1.500000e-01 1.250000e-01 0.0
1.750000e-01 1.250000e-01 0.0
2.000000e-01 1.250000e-01 0.0
2.250000e-01 1.250000e-01 0.0
2.500000e-01 1.250000e-01 0.0
2.750000e-01 1.250000e-01 0.0
3.000000e-01 1.250000e-01 0.0
3.250000e-01 1.250000e-01 0.0
3.500000e-01 1.250000e-01 0.0
3.750000e-01 1.250000e-01 0.0
4.000000e-01 1.250000e-01 0.0
4.250000e-01 1.250000e-01 0.0
4.500000e-01 1.250000e-01 0.0
4.750000e-01 1.250000e-01 0.0
5.000000e-01 1.250000e-01 0.0
5.250000e-01 1.250000e-01 0.0
5.500000e-01 1.250000e-01 0.0
5.750000e-01 1.250000e-01 0.0
6.000000e-01 1.250000e-01 0.0
6.250000e-01 1.250000e-01 0.0
6.500000e-01 1.250000e-01 0.0
6.750000e-01 1.250000e-01 0.0
7.000000e-01 1.250000e-01 0.0
7.250000e-01 1.250000e-01 0.0
7.500000e-01 1.250000e-01 0.0
7.750000e-01 1.250000e-01 0.0
8.000000e-01 1.250000e-01 0.0
8.250000e-01 1.250000e-01 0.0
8.500000e-01 1.250000e-01 0.0
8.750000e-01 1.250000e-01 0.0
9.000000e-01 1.250000e-01 0.0
9.250000e-01 1.250000e-01 0.0
9.500000e-01 1.250000e-01 0.0
9.750000e-01 1.250000e-01 0.0
1.000000e+00 1.250000e-01 0.0
0.000000e+00 1.500000e-01 0.0
2.500000e-02 1.500000e-01 0.0
5.000000e-02 1.500000e-01 0.0
7.500000e-02 1.500000e-01 0.0
1.000000e-01 1.500000e-01 0.0
1.250000e-01 1.500000e-01 0.0
1.500000e-01 1.500000e-01 0.0
1.750000e-01 1.500000e-01 0.0
2.000000e-01 1.500000e-01 0.0
2.250000e-01 1.500000e-01 0.0
2.500000e-01 1.500000e-01 0.0
2.750000e-01 1.500000e-01 0.0
3.000000e-01 1.500000e-01 0.0
3.250000e-01 1.500000e-01 0.0
3.500000e-01 1.500000e-01 0.0
3.750000e-01 1.500000e-01 0.0
4.000000e-01 1.500000e-01 0.0
4.250000e-01 1.500000e-01 0.0
4.500000e-01 1.500000e-01 0.0
4.750000e-01 1.500000e-01 0.0
5.000000e-01 1.500000e-01 0.0
5.250000e-01 1.500000e-01 0.0
5.500000e-01 1.500000e-01 0.0
5.750000e-01 1.500000e-01 0.0
6.000000e-01 1.500000e-01 0.0
6.250000e-01 1.500000e-01 0.0
6.500000e-01 1.500000e-01 0.0
6.750000e-01 1.500000e-01 0.0
7.000000e-01 1.500000e-01 0.0
7.250000e-01 1.500000e-01 0.0
7.500000e-01 1.500000e-01 0.0
7.750000e-01 1.500000e-01 0.0
8.000000e-01 1.500000e-01 0.0
8.250000e-01 1.500000e-01 0.0
8.500000e-01 1.500000e-01 0.0
8.750000e-01 1.500000e-01 0.0
9.000000e-01 1.500000e-01 0.0
9.250000e-01 1.500000e-01 0.0
9.500000e-01 1.500000e-01 0.0
9.750000e-01 1.500000e-01 0.0
1.000000e+00 1.500000e-01 0.0
0.000000e+00 1.750000e-01 0.0
2.500000e-02 1.750000e-01 0.0
5.000000e-02 1.750000e-01 0.0
7.500000e-02 1.750000e-01 0.0
1.000000e-01 1.750000e-01 0.0
1.250000e-01 1.750000e-01 0.0
1.500000e-01 1.750000e-01 0.0
1.750000e-01 1.750000e-01 0.0
2.000000e-01 1.750000e-01 0.0
2.250000e-01 1.750000e-01 0.0
2.500000e-01 1.750000e-01 0.0
2.750000e-01 1.750000e-01 0.0
3.000000e-01 1.750000e-01 0.0
3.250000e-01 1.750000e-01 0.0
3.500000e-01 1.750000e-01 0.0
3.750000e-01 1.750000e-01 0.0
4.000000e-01 1.750000e-01 0.0
4.250000e-01 1.750000e-01 0.0
4.500000e-01 1.750000e-01 0.0
4.750000e-01 1.750000e-01 0.0
5.000000e-01 1.750000e-01 0.0
5.250000e-01 1.750000e-01 0.0
5.500000e-01 1.750000e-01 0.0
5.750000e-01 1.750000e-01 0.0
6.000000e-01 1.750000e-01 0.0
6.250000e-01 1.750000e-01 0.0
6.500000e-01 1.750000e-01 0.0
6.750000e-01 1.750000e-01 0.0
7.000000e-01 1.750000e-01 0.0
7.250000e-01 1.750000e-01 0.0
7.500000e-01 1.750000e-01 0.0
7.750000e-01 1.750000e-01 0.0
8.000000e-01 1.750000e-01 0.0
8.250000e-01 1.750000e-01 0.0
8.500000e-01 1.750000e-01 0.0
8.750000e-01 1.750000e-01 0.0
9.000000e-01 1.750000e-01 0.0
9.250000e-01 1.750000e-01 0.0
9.500000e-01 1.750000e-01 0.0
9.750000e-01 1.750000e-01 0.0
1.000000e+00 1.750000e-01 0.0
[...]
CELL_DATA 1600
SCALARS Temperature double 1
LOOKUP_TABLE default
5.000000e-01
2.107909e-01
1.149814e-01
7.452440e-02
5.337177e-02
4.054038e-02
3.197607e-02
2.588917e-02
2.136953e-02
1.790367e-02
1.517920e-02
1.299491e-02
1.121540e-02
9.746238e-03
8.519601e-03
7.485588e-03
6.606698e-03
5.854241e-03
5.205919e-03
4.644168e-03
4.154981e-03
3.727066e-03
3.351237e-03
3.019954e-03
2.726987e-03
2.467151e-03
2.236112e-03
2.030233e-03
1.846457e-03
1.682220e-03
1.535384e-03
1.404189e-03
1.287231e-03
1.183455e-03
1.092167e-03
1.013076e-03
9.463733e-04
8.928466e-04
8.540660e-04
8.326491e-04
7.892091e-01
5.000000e-01
3.332681e-01
2.361339e-01
1.760710e-01
1.364684e-01
1.088773e-01
8.879022e-02
7.365212e-02
6.192777e-02
5.264611e-02
4.516562e-02
3.904673e-02
3.397883e-02
2.973663e-02
2.615302e-02
2.310163e-02
2.048530e-02
1.822816e-02
1.627026e-02
1.456363e-02
1.306949e-02
1.175624e-02
1.059788e-02
9.572878e-03
8.663307e-03
7.854150e-03
7.132796e-03
6.488633e-03
5.912750e-03
5.397711e-03
4.937400e-03
4.526936e-03
4.162646e-03
3.842125e-03
3.564383e-03
3.330107e-03
3.142087e-03
3.005854e-03
2.930613e-03
8.850186e-01
6.667319e-01
5.000000e-01
3.812916e-01
2.974174e-01
2.371405e-01
1.927382e-01
1.591953e-01
1.332674e-01
1.128205e-01
9.641645e-02
8.306108e-02
7.204989e-02
6.287224e-02
5.515032e-02
4.859944e-02
4.300160e-02
3.818733e-02
3.402326e-02
3.040311e-02
2.724136e-02
2.446852e-02
2.202765e-02
1.987173e-02
1.796170e-02
1.626491e-02
1.475395e-02
1.340574e-02
1.220082e-02
1.112283e-02
1.015809e-02
9.295345e-03
8.525605e-03
7.842124e-03
7.240508e-03
6.718996e-03
6.278967e-03
5.925734e-03
5.669747e-03
5.528353e-03
9.254756e-01
7.638661e-01
6.187084e-01
5.000000e-01
4.066582e-01
3.340587e-01
2.774122e-01
2.327874e-01
1.972104e-01
1.684951e-01
1.450442e-01
1.256845e-01
1.095454e-01
9.597269e-02
8.446834e-02
7.464852e-02
6.621366e-02
5.892735e-02
5.260101e-02
4.708280e-02
4.224934e-02
3.799955e-02
3.425005e-02
3.093156e-02
2.798621e-02
2.536541e-02
2.302818e-02
2.093991e-02
1.907131e-02
1.739771e-02
1.589842e-02
1.455643e-02
1.335813e-02
1.229334e-02
1.135549e-02
1.054207e-02
9.855420e-03
9.304016e-03
8.904309e-03
8.683497e-03
9.466282e-01
8.239290e-01
7.025826e-01
5.933418e-01
5.000000e-01
4.223183e-01
3.583742e-01
3.058474e-01
2.625779e-01
2.267437e-01
1.968751e-01
1.718092e-01
1.506320e-01
1.326252e-01
1.172219e-01
1.039720e-01
9.251562e-02
8.256311e-02
7.387941e-02
6.627248e-02
5.958436e-02
5.368428e-02
4.846331e-02
4.383025e-02
3.970833e-02
3.603272e-02
3.274843e-02
2.980878e-02
2.717416e-02
2.481102e-02
2.269121e-02
2.079152e-02
1.909340e-02
1.758303e-02
1.625158e-02
1.509595e-02
1.411983e-02
1.333560e-02
1.276692e-02
1.245269e-02
9.594596e-01
8.635316e-01
7.628595e-01
6.659413e-01
5.776817e-01
5.000000e-01
4.329590e-01
3.756898e-01
3.269743e-01
2.855552e-01
2.502781e-01
2.201407e-01
1.942984e-01
1.720498e-01
1.528166e-01
1.361231e-01
1.215775e-01
1.088565e-01
9.769229e-02
8.786226e-02
7.918036e-02
7.149055e-02
6.466138e-02
5.858164e-02
5.315693e-02
4.830685e-02
4.396281e-02
4.006620e-02
3.656702e-02
3.342277e-02
3.059767e-02
2.806218e-02
2.579270e-02
2.377174e-02
2.198833e-02
2.043901e-02
1.912939e-02
1.807659e-02
1.731283e-02
1.689070e-02
9.680239e-01
8.911227e-01
8.072618e-01
7.225878e-01
6.416258e-01
5.670410e-01
5.000000e-01
4.406731e-01
3.886615e-01
3.432938e-01
3.038075e-01
2.694495e-01
2.395251e-01
2.134167e-01
1.905872e-01
1.705755e-01
1.529884e-01
1.374916e-01
1.238014e-01
1.116767e-01
1.009126e-01
9.133430e-02
8.279265e-02
7.515991e-02
6.832648e-02
6.219820e-02
5.669401e-02
5.174422e-02
4.728897e-02
4.327719e-02
3.966570e-02
3.641876e-02
3.350792e-02
3.091219e-02
2.861874e-02
2.662421e-02
2.493677e-02
2.357928e-02
2.259399e-02
2.204925e-02
9.741108e-01
9.112098e-01
8.408047e-01
7.672126e-01
6.941526e-01
6.243102e-01
5.593269e-01
5.000000e-01
4.465329e-01
3.987556e-01
3.562896e-01
3.186598e-01
2.853639e-01
2.559124e-01
2.298497e-01
2.067636e-01
1.862871e-01
1.680975e-01
1.519124e-01
1.374861e-01
1.246052e-01
1.130844e-01
1.027628e-01
9.350092e-02
8.517744e-02
7.768706e-02
7.093830e-02
6.485184e-02
5.935911e-02
5.440122e-02
4.992827e-02
4.589883e-02
4.228001e-02
3.904775e-02
3.618787e-02
3.369772e-02
3.158882e-02
2.989093e-02
2.865785e-02
2.797587e-02
9.786305e-01
9.263479e-01
8.667326e-01
8.027896e-01
7.374221e-01
6.730257e-01
6.113385e-01
5.534671e-01
5.000000e-01
4.511435e-01
4.068456e-01
3.668943e-01
3.309890e-01
2.987891e-01
2.699453e-01
2.441188e-01
2.209913e-01
2.002707e-01
1.816926e-01
1.650198e-01
1.500413e-01
1.365698e-01
1.244398e-01
1.135054e-01
1.036380e-01
9.472458e-02
8.666578e-02
7.937475e-02
7.277580e-02
6.680356e-02
6.140236e-02
5.652596e-02
5.213771e-02
4.821121e-02
4.473160e-02
4.169771e-02
3.912543e-02
3.705261e-02
3.554625e-02
3.471280e-02
9.820963e-01
9.380722e-01
8.871795e-01
8.315049e-01
7.732563e-01
7.144448e-01
6.567062e-01
6.012444e-01
5.488565e-01
5.000000e-01
4.548722e-01
4.134840e-01
3.757221e-01
3.413958e-01
3.102722e-01
2.820995e-01
2.566237e-01
2.335979e-01
2.127891e-01
1.939805e-01
1.769736e-01
1.615878e-01
1.476600e-01
1.350436e-01
1.236076e-01
1.132349e-01
1.038216e-01
9.527584e-02
8.751684e-02
8.047438e-02
7.408840e-02
6.830898e-02
6.309674e-02
5.842383e-02
5.427562e-02
5.065339e-02
4.757847e-02
4.509818e-02
4.329441e-02
4.229598e-02
9.848208e-01
9.473539e-01
9.035835e-01
8.549558e-01
8.031249e-01
7.497219e-01
6.961925e-01
6.437104e-01
5.931544e-01
5.451278e-01
5.000000e-01
4.579547e-01
4.190369e-01
3.831935e-01
3.503053e-01
3.202125e-01
2.927327e-01
2.676743e-01
2.448451e-01
2.240584e-01
2.051367e-01
1.879137e-01
1.722355e-01
1.579608e-01
1.449605e-01
1.331180e-01
1.223281e-01
1.124967e-01
1.035402e-01
9.538569e-02
8.797026e-02
8.124176e-02
7.515931e-02
6.969474e-02
6.483472e-02
6.058414e-02
5.697098e-02
5.405344e-02
5.193006e-02
5.075415e-02
9.870051e-01
9.548344e-01
9.169389e-01
8.743155e-01
8.281908e-01
7.798593e-01
7.305505e-01
6.813402e-01
6.331057e-01
5.865160e-01
5.420453e-01
5.000000e-01
4.605493e-01
4.237565e-01
3.896058e-01
3.580258e-01
3.289075e-01
3.021185e-01
2.775138e-01
2.549432e-01
2.342571e-01
2.153097e-01
1.979622e-01
1.820835e-01
1.675516e-01
1.542540e-01
1.420878e-01
1.309595e-01
1.207856e-01
1.114922e-01
1.030158e-01
9.530334e-02
8.831402e-02
8.202063e-02
7.641241e-02
7.149906e-02
6.731656e-02
6.393548e-02
6.147271e-02
6.010816e-02
9.887846e-01
9.609533e-01
9.279501e-01
8.904546e-01
8.493680e-01
8.057016e-01
7.604749e-01
7.146361e-01
6.690110e-01
6.242779e-01
5.809631e-01
5.394507e-01
5.000000e-01
4.627664e-01
4.278221e-01
3.951753e-01
3.647866e-01
3.365832e-01
3.104694e-01
2.863352e-01
2.640633e-01
2.435335e-01
2.246263e-01
2.072257e-01
1.912207e-01
1.765068e-01
1.629864e-01
1.505699e-01
1.391762e-01
1.287330e-01
1.191777e-01
1.104586e-01
1.025362e-01
9.538587e-02
8.900071e-02
8.339662e-02
7.861896e-02
7.475215e-02
7.193314e-02
7.037038e-02
9.902538e-01
9.660212e-01
9.371278e-01
9.040273e-01
8.673748e-01
8.279502e-01
7.865833e-01
7.440876e-01
7.012109e-01
6.586041e-01
6.168065e-01
5.762435e-01
5.372336e-01
5.000000e-01
4.646851e-01
4.313649e-01
4.000628e-01
3.707618e-01
3.434146e-01
3.179529e-01
2.942939e-01
2.723457e-01
2.520120e-01
2.331951e-01
2.157984e-01
1.997286e-01
1.848968e-01
1.712198e-01
1.586213e-01
1.470329e-01
1.363951e-01
1.266590e-01
1.177886e-01
1.097628e-01
1.025804e-01
9.626470e-02
9.087194e-02
8.650186e-02
8.331307e-02
8.154434e-02
9.914804e-01
9.702634e-01
9.448497e-01
9.155317e-01
8.827781e-01
8.471834e-01
8.094128e-01
7.701503e-01
7.300547e-01
6.897278e-01
6.496947e-01
6.103942e-01
5.721779e-01
5.353149e-01
5.000000e-01
4.663638e-01
4.344832e-01
4.043910e-01
3.760856e-01
3.495390e-01
3.247032e-01
3.015162e-01
2.799068e-01
2.597981e-01
2.411105e-01
2.237647e-01
2.076827e-01
1.927904e-01
1.790186e-01
1.663049e-01
1.545949e-01
1.438444e-01
1.340221e-01
1.251126e-01
1.171213e-01
1.100808e-01
1.040593e-01
9.917347e-02
9.560499e-02
9.362453e-02
9.925144e-01
9.738470e-01
9.514006e-01
9.253515e-01
8.960280e-01
8.638769e-01
8.294245e-01
7.932364e-01
7.558812e-01
7.179005e-01
6.797875e-01
6.419742e-01
6.048247e-01
5.686351e-01
5.336362e-01
5.000000e-01
4.678466e-01
4.372518e-01
4.082545e-01
3.808640e-01
3.550662e-01
3.308290e-01
3.081068e-01
2.868450e-01
2.669829e-01
2.484567e-01
2.312020e-01
2.151554e-01
2.002571e-01
1.864524e-01
1.736939e-01
1.619438e-01
1.511772e-01
1.413857e-01
1.325832e-01
1.248124e-01
1.181552e-01
1.127465e-01
1.087922e-01
1.065964e-01
9.933933e-01
9.768984e-01
9.569984e-01
9.337863e-01
9.074844e-01
8.784225e-01
8.470116e-01
8.137129e-01
7.790087e-01
7.433763e-01
7.072673e-01
6.710925e-01
6.352134e-01
5.999372e-01
5.655168e-01
5.321534e-01
5.000000e-01
4.691673e-01
4.397291e-01
4.117282e-01
3.851816e-01
3.600855e-01
3.364203e-01
3.141537e-01
2.932448e-01
2.736470e-01
2.553103e-01
2.381843e-01
2.222197e-01
2.073715e-01
1.936006e-01
1.808775e-01
1.691851e-01
1.585235e-01
1.489162e-01
1.404176e-01
1.331246e-01
1.271912e-01
1.228492e-01
1.204365e-01
9.941458e-01
9.795147e-01
9.618127e-01
9.410727e-01
9.174369e-01
8.911435e-01
8.625084e-01
8.319025e-01
7.997293e-01
7.664021e-01
7.323257e-01
6.978815e-01
6.634168e-01
6.292382e-01
5.956090e-01
5.627482e-01
5.308327e-01
5.000000e-01
4.703525e-01
4.419616e-01
4.148723e-01
3.891071e-01
3.646706e-01
3.415528e-01
3.197327e-01
2.991813e-01
2.798642e-01
2.617446e-01
2.447856e-01
2.289529e-01
2.142174e-01
2.005588e-01
1.879694e-01
1.764591e-01
1.660621e-01
1.568461e-01
1.489238e-01
1.424695e-01
1.377416e-01
1.351129e-01
9.947941e-01
9.817718e-01
9.659767e-01
9.473990e-01
9.261206e-01
9.023077e-01
8.761986e-01
8.480876e-01
8.183074e-01
7.872109e-01
7.551549e-01
7.224862e-01
6.895306e-01
6.565854e-01
6.239144e-01
5.917455e-01
5.602709e-01
5.296475e-01
5.000000e-01
4.714235e-01
4.439867e-01
4.177359e-01
3.926980e-01
3.688840e-01
3.462922e-01
3.249113e-01
3.047230e-01
2.857048e-01
2.678328e-01
2.510845e-01
2.354419e-01
2.208952e-01
2.074471e-01
1.951183e-01
1.839554e-01
1.740397e-01
1.655011e-01
1.585350e-01
1.534270e-01
1.505852e-01
9.953558e-01
9.837297e-01
9.695969e-01
9.529172e-01
9.337275e-01
9.121377e-01
8.883233e-01
8.625139e-01
8.349802e-01
8.060195e-01
7.759416e-01
7.450568e-01
7.136648e-01
6.820471e-01
6.504610e-01
6.191360e-01
5.882718e-01
5.580384e-01
5.285765e-01
5.000000e-01
4.723974e-01
4.458352e-01
4.203602e-01
3.960030e-01
3.727800e-01
3.506971e-01
3.297518e-01
3.099363e-01
2.912401e-01
2.736533e-01
2.571696e-01
2.417906e-01
2.275304e-01
2.144218e-01
2.025240e-01
1.919334e-01
1.827976e-01
1.753339e-01
1.698555e-01
1.668058e-01
9.958450e-01
9.854364e-01
9.727586e-01
9.577507e-01
9.404156e-01
9.208196e-01
8.990874e-01
8.753948e-01
8.499587e-01
8.230264e-01
7.948633e-01
7.657429e-01
7.359367e-01
7.057061e-01
6.752968e-01
6.449337e-01
6.148184e-01
5.851277e-01
5.560133e-01
5.276026e-01
5.000000e-01
4.732888e-01
4.475331e-01
4.227807e-01
3.990650e-01
3.764080e-01
3.548224e-01
3.343149e-01
3.148886e-01
2.965465e-01
2.792946e-01
2.631464e-01
2.481282e-01
2.342852e-01
2.216906e-01
2.104563e-01
2.007481e-01
1.928058e-01
1.869701e-01
1.837195e-01
9.962729e-01
9.869305e-01
9.755315e-01
9.620005e-01
9.463157e-01
9.285095e-01
9.086657e-01
8.869156e-01
8.634302e-01
8.384122e-01
8.120863e-01
7.846903e-01
7.564665e-01
7.276543e-01
6.984838e-01
6.691710e-01
6.399145e-01
6.108929e-01
5.822641e-01
5.541648e-01
5.267112e-01
5.000000e-01
4.741098e-01
4.491033e-01
4.250290e-01
4.019237e-01
3.798146e-01
3.587223e-01
3.386634e-01
3.196535e-01
3.017113e-01
2.848627e-01
2.691464e-01
2.546210e-01
2.413736e-01
2.295323e-01
2.192817e-01
2.108840e-01
2.047074e-01
2.012648e-01
9.966488e-01
9.882438e-01
9.779724e-01
9.657500e-01
9.515367e-01
9.353386e-01
9.172074e-01
8.972372e-01
8.755602e-01
8.523400e-01
8.277645e-01
8.020378e-01
7.753737e-01
7.479880e-01
7.200932e-01
6.918932e-01
6.635797e-01
6.353294e-01
6.073020e-01
5.796398e-01
5.524669e-01
5.258902e-01
5.000000e-01
4.748715e-01
4.505664e-01
4.271347e-01
4.046171e-01
3.830471e-01
3.624542e-01
3.428668e-01
3.243158e-01
3.068397e-01
2.904901e-01
2.753388e-01
2.614876e-01
2.490811e-01
2.383224e-01
2.294962e-01
2.229980e-01
2.193739e-01
9.969800e-01
9.894021e-01
9.801283e-01
9.690684e-01
9.561698e-01
9.414184e-01
9.248401e-01
9.064991e-01
8.864946e-01
8.649564e-01
8.420392e-01
8.179165e-01
7.927743e-01
7.668049e-01
7.402019e-01
7.131550e-01
6.858463e-01
6.584472e-01
6.311160e-01
6.039970e-01
5.772193e-01
5.508967e-01
5.251285e-01
5.000000e-01
4.755840e-01
4.519422e-01
4.291271e-01
4.071846e-01
3.861560e-01
3.660820e-01
3.470057e-01
3.289780e-01
3.120631e-01
2.963465e-01
2.819446e-01
2.690182e-01
2.577895e-01
2.485651e-01
2.417670e-01
2.379732e-01
9.972730e-01
9.904271e-01
9.820383e-01
9.720138e-01
9.602917e-01
9.468431e-01
9.316735e-01
9.148226e-01
8.963620e-01
8.763924e-01
8.550395e-01
8.324484e-01
8.087793e-01
7.842016e-01
7.588895e-01
7.330171e-01
7.067552e-01
6.802673e-01
6.537078e-01
6.272200e-01
6.009350e-01
5.749710e-01
5.494336e-01
5.244160e-01
5.000000e-01
4.762572e-01
4.532507e-01
4.310371e-01
4.096693e-01
3.891990e-01
3.696813e-01
3.511791e-01
3.337691e-01
3.175503e-01
3.026536e-01
2.892560e-01
2.775982e-01
2.680084e-01
2.609340e-01
2.569837e-01
9.975328e-01
9.913367e-01
9.837351e-01
9.746346e-01
9.639673e-01
9.516931e-01
9.378018e-01
9.223129e-01
9.052754e-01
8.867651e-01
8.668820e-01
8.457460e-01
8.234932e-01
8.002714e-01
7.762353e-01
7.515433e-01
7.263530e-01
7.008187e-01
6.750887e-01
6.493029e-01
6.235920e-01
5.980763e-01
5.728653e-01
5.480578e-01
5.237428e-01
5.000000e-01
4.769015e-01
4.545137e-01
4.328994e-01
4.121211e-01
3.922450e-01
3.733455e-01
3.555115e-01
3.388549e-01
3.235212e-01
3.097031e-01
2.976592e-01
2.877387e-01
2.804132e-01
2.763203e-01
9.977639e-01
9.921458e-01
9.852461e-01
9.769718e-01
9.672516e-01
9.560372e-01
9.433060e-01
9.290617e-01
9.133342e-01
8.961784e-01
8.776719e-01
8.579122e-01
8.370136e-01
8.151032e-01
7.923173e-01
7.687980e-01
7.446897e-01
7.201358e-01
6.952770e-01
6.702482e-01
6.451776e-01
6.201854e-01
5.953829e-01
5.708729e-01
5.467493e-01
5.230985e-01
5.000000e-01
4.775285e-01
4.557560e-01
4.347547e-01
4.146009e-01
3.953799e-01
3.771925e-01
3.601631e-01
3.444509e-01
3.302640e-01
3.178784e-01
3.076631e-01
3.001128e-01
2.958918e-01
9.979698e-01
9.928672e-01
9.865943e-01
9.790601e-01
9.701912e-01
9.599338e-01
9.482558e-01
9.351482e-01
9.206253e-01
9.047242e-01
8.875033e-01
8.690405e-01
8.494301e-01
8.287802e-01
8.072096e-01
7.848446e-01
7.618157e-01
7.382554e-01
7.142952e-01
6.900637e-01
6.656851e-01
6.412776e-01
6.169529e-01
5.928154e-01
5.689629e-01
5.454863e-01
5.224715e-01
5.000000e-01
4.781518e-01
4.570076e-01
4.366534e-01
4.171845e-01
3.987127e-01
3.813745e-01
3.653421e-01
3.508385e-01
3.381560e-01
3.276825e-01
3.199341e-01
3.156000e-01
9.981535e-01
9.935114e-01
9.877992e-01
9.809287e-01
9.728258e-01
9.634330e-01
9.527110e-01
9.406409e-01
9.272242e-01
9.124832e-01
8.964598e-01
8.792144e-01
8.608238e-01
8.413787e-01
8.209814e-01
7.997429e-01
7.777803e-01
7.552144e-01
7.321672e-01
7.087599e-01
6.851114e-01
6.613366e-01
6.375458e-01
6.138440e-01
5.903307e-01
5.671006e-01
5.442440e-01
5.218482e-01
5.000000e-01
4.787878e-01
4.583058e-01
4.386590e-01
4.199692e-01
4.023842e-01
3.860887e-01
3.713196e-01
3.583847e-01
3.476895e-01
3.397699e-01
3.353375e-01
9.983178e-01
9.940873e-01
9.888772e-01
9.826023e-01
9.751890e-01
9.665772e-01
9.567228e-01
9.455988e-01
9.331964e-01
9.195256e-01
9.046143e-01
8.885078e-01
8.712670e-01
8.529671e-01
8.336951e-01
8.135476e-01
7.926285e-01
7.710471e-01
7.489155e-01
7.263467e-01
7.034535e-01
6.803464e-01
6.571332e-01
6.339180e-01
6.108010e-01
5.878789e-01
5.652453e-01
5.429923e-01
5.212122e-01
5.000000e-01
4.794575e-01
4.596979e-01
4.408527e-01
4.230801e-01
4.065765e-01
3.915915e-01
3.784476e-01
3.675663e-01
3.595018e-01
3.549859e-01
9.984646e-01
9.946023e-01
9.898419e-01
9.841016e-01
9.773088e-01
9.694023e-01
9.603343e-01
9.500717e-01
9.385976e-01
9.259116e-01
9.120297e-01
8.969842e-01
8.808223e-01
8.636049e-01
8.454051e-01
8.263061e-01
8.063994e-01
7.857826e-01
7.645581e-01
7.428304e-01
7.207054e-01
6.982887e-01
6.756842e-01
6.529943e-01
6.303187e-01
6.077550e-01
5.853991e-01
5.633466e-01
5.416942e-01
5.205425e-01
5.000000e-01
4.801874e-01
4.612448e-01
4.433398e-01
4.266796e-01
4.115258e-01
3.982143e-01
3.871813e-01
3.789974e-01
3.744123e-01
9.985958e-01
9.950626e-01
9.907047e-01
9.854436e-01
9.792085e-01
9.719378e-01
9.635812e-01
9.541012e-01
9.434740e-01
9.316910e-01
9.187582e-01
9.046967e-01
8.895414e-01
8.733410e-01
8.561556e-01
8.380562e-01
8.191225e-01
7.994412e-01
7.791048e-01
7.582094e-01
7.368536e-01
7.151373e-01
6.931603e-01
6.710220e-01
6.488209e-01
6.266545e-01
6.046201e-01
5.828155e-01
5.613410e-01
5.403021e-01
5.198126e-01
5.000000e-01
4.810120e-01
4.630249e-01
4.462558e-01
4.309770e-01
4.175366e-01
4.063842e-01
3.981049e-01
3.934640e-01
9.987128e-01
9.954731e-01
9.914744e-01
9.866419e-01
9.809066e-01
9.742073e-01
9.664921e-01
9.577200e-01
9.478623e-01
9.369033e-01
9.248407e-01
9.116860e-01
8.974638e-01
8.822114e-01
8.659779e-01
8.488228e-01
8.308149e-01
8.120306e-01
7.925529e-01
7.724696e-01
7.518718e-01
7.308536e-01
7.095099e-01
6.879369e-01
6.662309e-01
6.444885e-01
6.228075e-01
6.012873e-01
5.800308e-01
5.591472e-01
5.387552e-01
5.189880e-01
5.000000e-01
4.819754e-01
4.651398e-01
4.497755e-01
4.362416e-01
4.249994e-01
4.166469e-01
4.119626e-01
9.988165e-01
9.958374e-01
9.921579e-01
9.877067e-01
9.824170e-01
9.762283e-01
9.690878e-01
9.609523e-01
9.517888e-01
9.415762e-01
9.303053e-01
9.179794e-01
9.046141e-01
8.902372e-01
8.748874e-01
8.586143e-01
8.414765e-01
8.235409e-01
8.048816e-01
7.855782e-01
7.657148e-01
7.453790e-01
7.246612e-01
7.036535e-01
6.824497e-01
6.611451e-01
6.398369e-01
6.186255e-01
5.976158e-01
5.769198e-01
5.566602e-01
5.369750e-01
5.180246e-01
5.000000e-01
4.831346e-01
4.677194e-01
4.541231e-01
4.428175e-01
4.344117e-01
4.296953e-01
9.989078e-01
9.961579e-01
9.927595e-01
9.886445e-01
9.837484e-01
9.780117e-01
9.713813e-01
9.638121e-01
9.552684e-01
9.457244e-01
9.351653e-01
9.235876e-01
9.109993e-01
8.974196e-01
8.828787e-01
8.674168e-01
8.510838e-01
8.339379e-01
8.160446e-01
7.974760e-01
7.783094e-01
7.586264e-01
7.385123e-01
7.180554e-01
6.973464e-01
6.764788e-01
6.555491e-01
6.346579e-01
6.139112e-01
5.934235e-01
5.733204e-01
5.537442e-01
5.348602e-01
5.168654e-01
5.000000e-01
4.845626e-01
4.709303e-01
4.595839e-01
4.511419e-01
4.464033e-01
9.989869e-01
9.964356e-01
9.932810e-01
9.894579e-01
9.849041e-01
9.795610e-01
9.733758e-01
9.663023e-01
9.583023e-01
9.493466e-01
9.394159e-01
9.285009e-01
9.166034e-01
9.037353e-01
8.899192e-01
8.751876e-01
8.595824e-01
8.431539e-01
8.259603e-01
8.080666e-01
7.895437e-01
7.704677e-01
7.509189e-01
7.309818e-01
7.107440e-01
6.902969e-01
6.697360e-01
6.491615e-01
6.286804e-01
6.084085e-01
5.884741e-01
5.690230e-01
5.502244e-01
5.322805e-01
5.154373e-01
5.000000e-01
4.863526e-01
4.749838e-01
4.665197e-01
4.617668e-01
9.990536e-01
9.966699e-01
9.937210e-01
9.901446e-01
9.858802e-01
9.808706e-01
9.750632e-01
9.684112e-01
9.608746e-01
9.524215e-01
9.430290e-01
9.326834e-01
9.213810e-01
9.091281e-01
8.959407e-01
8.818448e-01
8.668754e-01
8.510762e-01
8.344989e-01
8.172024e-01
7.992519e-01
7.807183e-01
7.616776e-01
7.422105e-01
7.224018e-01
7.023408e-01
6.821215e-01
6.618440e-01
6.416152e-01
6.215524e-01
6.017857e-01
5.824634e-01
5.637584e-01
5.458769e-01
5.290697e-01
5.136474e-01
5.000000e-01
4.886224e-01
4.801469e-01
4.753861e-01
9.991072e-01
9.968579e-01
9.940743e-01
9.906960e-01
9.866644e-01
9.819234e-01
9.764207e-01
9.701091e-01
9.629474e-01
9.549018e-01
9.459466e-01
9.360645e-01
9.252478e-01
9.134981e-01
9.008265e-01
8.872535e-01
8.728088e-01
8.575305e-01
8.414650e-01
8.246661e-01
8.071942e-01
7.891160e-01
7.705038e-01
7.514349e-01
7.319916e-01
7.122613e-01
6.923369e-01
6.723175e-01
6.523105e-01
6.324337e-01
6.128187e-01
5.936158e-01
5.750006e-01
5.571825e-01
5.404160e-01
5.250162e-01
5.113776e-01
5.000000e-01
4.915206e-01
4.867561e-01
9.991459e-01
9.969941e-01
9.943303e-01
9.910957e-01
9.872331e-01
9.826872e-01
9.774060e-01
9.713421e-01
9.644537e-01
9.567056e-01
9.480699e-01
9.385273e-01
9.280669e-01