# vtk DataFile Version 3.0
QUICK scheme_Pe = 10,Grid 81x81,009406.vtk
ASCII
DATASET STRUCTURED_GRID
DIMENSIONS 81 81 1
POINTS 6561 double
0.000000e+00 0.000000e+00 0.0
1.250000e-02 0.000000e+00 0.0
2.500000e-02 0.000000e+00 0.0
3.750000e-02 0.000000e+00 0.0
5.000000e-02 0.000000e+00 0.0
6.250000e-02 0.000000e+00 0.0
7.500000e-02 0.000000e+00 0.0
8.750000e-02 0.000000e+00 0.0
1.000000e-01 0.000000e+00 0.0
1.125000e-01 0.000000e+00 0.0
1.250000e-01 0.000000e+00 0.0
1.375000e-01 0.000000e+00 0.0
1.500000e-01 0.000000e+00 0.0
1.625000e-01 0.000000e+00 0.0
1.750000e-01 0.000000e+00 0.0
1.875000e-01 0.000000e+00 0.0
2.000000e-01 0.000000e+00 0.0
2.125000e-01 0.000000e+00 0.0
2.250000e-01 0.000000e+00 0.0
2.375000e-01 0.000000e+00 0.0
2.500000e-01 0.000000e+00 0.0
2.625000e-01 0.000000e+00 0.0
2.750000e-01 0.000000e+00 0.0
2.875000e-01 0.000000e+00 0.0
3.000000e-01 0.000000e+00 0.0
3.125000e-01 0.000000e+00 0.0
3.250000e-01 0.000000e+00 0.0
3.375000e-01 0.000000e+00 0.0
3.500000e-01 0.000000e+00 0.0
3.625000e-01 0.000000e+00 0.0
3.750000e-01 0.000000e+00 0.0
3.875000e-01 0.000000e+00 0.0
4.000000e-01 0.000000e+00 0.0
4.125000e-01 0.000000e+00 0.0
4.250000e-01 0.000000e+00 0.0
4.375000e-01 0.000000e+00 0.0
4.500000e-01 0.000000e+00 0.0
4.625000e-01 0.000000e+00 0.0
4.750000e-01 0.000000e+00 0.0
4.875000e-01 0.000000e+00 0.0
5.000000e-01 0.000000e+00 0.0
5.125000e-01 0.000000e+00 0.0
5.250000e-01 0.000000e+00 0.0
5.375000e-01 0.000000e+00 0.0
5.500000e-01 0.000000e+00 0.0
5.625000e-01 0.000000e+00 0.0
5.750000e-01 0.000000e+00 0.0
5.875000e-01 0.000000e+00 0.0
6.000000e-01 0.000000e+00 0.0
6.125000e-01 0.000000e+00 0.0
6.250000e-01 0.000000e+00 0.0
6.375000e-01 0.000000e+00 0.0
6.500000e-01 0.000000e+00 0.0
6.625000e-01 0.000000e+00 0.0
6.750000e-01 0.000000e+00 0.0
6.875000e-01 0.000000e+00 0.0
7.000000e-01 0.000000e+00 0.0
7.125000e-01 0.000000e+00 0.0
7.250000e-01 0.000000e+00 0.0
7.375000e-01 0.000000e+00 0.0
7.500000e-01 0.000000e+00 0.0
7.625000e-01 0.000000e+00 0.0
7.750000e-01 0.000000e+00 0.0
7.875000e-01 0.000000e+00 0.0
8.000000e-01 0.000000e+00 0.0
8.125000e-01 0.000000e+00 0.0
8.250000e-01 0.000000e+00 0.0
8.375000e-01 0.000000e+00 0.0
8.500000e-01 0.000000e+00 0.0
8.625000e-01 0.000000e+00 0.0
8.750000e-01 0.000000e+00 0.0
8.875000e-01 0.000000e+00 0.0
9.000000e-01 0.000000e+00 0.0
9.125000e-01 0.000000e+00 0.0
9.250000e-01 0.000000e+00 0.0
9.375000e-01 0.000000e+00 0.0
9.500000e-01 0.000000e+00 0.0
9.625000e-01 0.000000e+00 0.0
9.750000e-01 0.000000e+00 0.0
9.875000e-01 0.000000e+00 0.0
1.000000e+00 0.000000e+00 0.0
0.000000e+00 1.250000e-02 0.0
1.250000e-02 1.250000e-02 0.0
2.500000e-02 1.250000e-02 0.0
3.750000e-02 1.250000e-02 0.0
5.000000e-02 1.250000e-02 0.0
6.250000e-02 1.250000e-02 0.0
7.500000e-02 1.250000e-02 0.0
8.750000e-02 1.250000e-02 0.0
1.000000e-01 1.250000e-02 0.0
1.125000e-01 1.250000e-02 0.0
1.250000e-01 1.250000e-02 0.0
1.375000e-01 1.250000e-02 0.0
1.500000e-01 1.250000e-02 0.0
1.625000e-01 1.250000e-02 0.0
1.750000e-01 1.250000e-02 0.0
1.875000e-01 1.250000e-02 0.0
2.000000e-01 1.250000e-02 0.0
2.125000e-01 1.250000e-02 0.0
2.250000e-01 1.250000e-02 0.0
2.375000e-01 1.250000e-02 0.0
2.500000e-01 1.250000e-02 0.0
2.625000e-01 1.250000e-02 0.0
2.750000e-01 1.250000e-02 0.0
2.875000e-01 1.250000e-02 0.0
3.000000e-01 1.250000e-02 0.0
3.125000e-01 1.250000e-02 0.0
3.250000e-01 1.250000e-02 0.0
3.375000e-01 1.250000e-02 0.0
3.500000e-01 1.250000e-02 0.0
3.625000e-01 1.250000e-02 0.0
3.750000e-01 1.250000e-02 0.0
3.875000e-01 1.250000e-02 0.0
4.000000e-01 1.250000e-02 0.0
4.125000e-01 1.250000e-02 0.0
4.250000e-01 1.250000e-02 0.0
4.375000e-01 1.250000e-02 0.0
4.500000e-01 1.250000e-02 0.0
4.625000e-01 1.250000e-02 0.0
4.750000e-01 1.250000e-02 0.0
4.875000e-01 1.250000e-02 0.0
5.000000e-01 1.250000e-02 0.0
5.125000e-01 1.250000e-02 0.0
5.250000e-01 1.250000e-02 0.0
5.375000e-01 1.250000e-02 0.0
5.500000e-01 1.250000e-02 0.0
5.625000e-01 1.250000e-02 0.0
5.750000e-01 1.250000e-02 0.0
5.875000e-01 1.250000e-02 0.0
6.000000e-01 1.250000e-02 0.0
6.125000e-01 1.250000e-02 0.0
6.250000e-01 1.250000e-02 0.0
6.375000e-01 1.250000e-02 0.0
6.500000e-01 1.250000e-02 0.0
6.625000e-01 1.250000e-02 0.0
6.750000e-01 1.250000e-02 0.0
6.875000e-01 1.250000e-02 0.0
7.000000e-01 1.250000e-02 0.0
7.125000e-01 1.250000e-02 0.0
7.250000e-01 1.250000e-02 0.0
7.375000e-01 1.250000e-02 0.0
7.500000e-01 1.250000e-02 0.0
7.625000e-01 1.250000e-02 0.0
7.750000e-01 1.250000e-02 0.0
7.875000e-01 1.250000e-02 0.0
8.000000e-01 1.250000e-02 0.0
8.125000e-01 1.250000e-02 0.0
8.250000e-01 1.250000e-02 0.0
8.375000e-01 1.250000e-02 0.0
8.500000e-01 1.250000e-02 0.0
8.625000e-01 1.250000e-02 0.0
8.750000e-01 1.250000e-02 0.0
8.875000e-01 1.250000e-02 0.0
9.000000e-01 1.250000e-02 0.0
9.125000e-01 1.250000e-02 0.0
9.250000e-01 1.250000e-02 0.0
9.375000e-01 1.250000e-02 0.0
9.500000e-01 1.250000e-02 0.0
9.625000e-01 1.250000e-02 0.0
9.750000e-01 1.250000e-02 0.0
9.875000e-01 1.250000e-02 0.0
1.000000e+00 1.250000e-02 0.0
0.000000e+00 2.500000e-02 0.0
1.250000e-02 2.500000e-02 0.0
2.500000e-02 2.500000e-02 0.0
3.750000e-02 2.500000e-02 0.0
5.000000e-02 2.500000e-02 0.0
6.250000e-02 2.500000e-02 0.0
7.500000e-02 2.500000e-02 0.0
8.750000e-02 2.500000e-02 0.0
1.000000e-01 2.500000e-02 0.0
1.125000e-01 2.500000e-02 0.0
1.250000e-01 2.500000e-02 0.0
1.375000e-01 2.500000e-02 0.0
1.500000e-01 2.500000e-02 0.0
1.625000e-01 2.500000e-02 0.0
1.750000e-01 2.500000e-02 0.0
1.875000e-01 2.500000e-02 0.0
2.000000e-01 2.500000e-02 0.0
2.125000e-01 2.500000e-02 0.0
2.250000e-01 2.500000e-02 0.0
2.375000e-01 2.500000e-02 0.0
2.500000e-01 2.500000e-02 0.0
2.625000e-01 2.500000e-02 0.0
2.750000e-01 2.500000e-02 0.0
2.875000e-01 2.500000e-02 0.0
3.000000e-01 2.500000e-02 0.0
3.125000e-01 2.500000e-02 0.0
3.250000e-01 2.500000e-02 0.0
3.375000e-01 2.500000e-02 0.0
3.500000e-01 2.500000e-02 0.0
3.625000e-01 2.500000e-02 0.0
3.750000e-01 2.500000e-02 0.0
3.875000e-01 2.500000e-02 0.0
4.000000e-01 2.500000e-02 0.0
4.125000e-01 2.500000e-02 0.0
4.250000e-01 2.500000e-02 0.0
4.375000e-01 2.500000e-02 0.0
4.500000e-01 2.500000e-02 0.0
4.625000e-01 2.500000e-02 0.0
4.750000e-01 2.500000e-02 0.0
4.875000e-01 2.500000e-02 0.0
5.000000e-01 2.500000e-02 0.0
5.125000e-01 2.500000e-02 0.0
5.250000e-01 2.500000e-02 0.0
5.375000e-01 2.500000e-02 0.0
5.500000e-01 2.500000e-02 0.0
5.625000e-01 2.500000e-02 0.0
5.750000e-01 2.500000e-02 0.0
5.875000e-01 2.500000e-02 0.0
6.000000e-01 2.500000e-02 0.0
6.125000e-01 2.500000e-02 0.0
6.250000e-01 2.500000e-02 0.0
6.375000e-01 2.500000e-02 0.0
6.500000e-01 2.500000e-02 0.0
6.625000e-01 2.500000e-02 0.0
6.750000e-01 2.500000e-02 0.0
6.875000e-01 2.500000e-02 0.0
7.000000e-01 2.500000e-02 0.0
7.125000e-01 2.500000e-02 0.0
7.250000e-01 2.500000e-02 0.0
7.375000e-01 2.500000e-02 0.0
7.500000e-01 2.500000e-02 0.0
7.625000e-01 2.500000e-02 0.0
7.750000e-01 2.500000e-02 0.0
7.875000e-01 2.500000e-02 0.0
8.000000e-01 2.500000e-02 0.0
8.125000e-01 2.500000e-02 0.0
8.250000e-01 2.500000e-02 0.0
8.375000e-01 2.500000e-02 0.0
8.500000e-01 2.500000e-02 0.0
8.625000e-01 2.500000e-02 0.0
8.750000e-01 2.500000e-02 0.0
8.875000e-01 2.500000e-02 0.0
9.000000e-01 2.500000e-02 0.0
9.125000e-01 2.500000e-02 0.0
9.250000e-01 2.500000e-02 0.0
9.375000e-01 2.500000e-02 0.0
9.500000e-01 2.500000e-02 0.0
9.625000e-01 2.500000e-02 0.0
9.750000e-01 2.500000e-02 0.0
9.875000e-01 2.500000e-02 0.0
1.000000e+00 2.500000e-02 0.0
0.000000e+00 3.750000e-02 0.0
1.250000e-02 3.750000e-02 0.0
2.500000e-02 3.750000e-02 0.0
3.750000e-02 3.750000e-02 0.0
5.000000e-02 3.750000e-02 0.0
6.250000e-02 3.750000e-02 0.0
7.500000e-02 3.750000e-02 0.0
8.750000e-02 3.750000e-02 0.0
1.000000e-01 3.750000e-02 0.0
1.125000e-01 3.750000e-02 0.0
1.250000e-01 3.750000e-02 0.0
1.375000e-01 3.750000e-02 0.0
1.500000e-01 3.750000e-02 0.0
1.625000e-01 3.750000e-02 0.0
1.750000e-01 3.750000e-02 0.0
1.875000e-01 3.750000e-02 0.0
2.000000e-01 3.750000e-02 0.0
2.125000e-01 3.750000e-02 0.0
2.250000e-01 3.750000e-02 0.0
2.375000e-01 3.750000e-02 0.0
2.500000e-01 3.750000e-02 0.0
2.625000e-01 3.750000e-02 0.0
2.750000e-01 3.750000e-02 0.0
2.875000e-01 3.750000e-02 0.0
3.000000e-01 3.750000e-02 0.0
3.125000e-01 3.750000e-02 0.0
3.250000e-01 3.750000e-02 0.0
3.375000e-01 3.750000e-02 0.0
3.500000e-01 3.750000e-02 0.0
3.625000e-01 3.750000e-02 0.0
3.750000e-01 3.750000e-02 0.0
3.875000e-01 3.750000e-02 0.0
4.000000e-01 3.750000e-02 0.0
4.125000e-01 3.750000e-02 0.0
4.250000e-01 3.750000e-02 0.0
4.375000e-01 3.750000e-02 0.0
4.500000e-01 3.750000e-02 0.0
4.625000e-01 3.750000e-02 0.0
4.750000e-01 3.750000e-02 0.0
4.875000e-01 3.750000e-02 0.0
5.000000e-01 3.750000e-02 0.0
5.125000e-01 3.750000e-02 0.0
5.250000e-01 3.750000e-02 0.0
5.375000e-01 3.750000e-02 0.0
5.500000e-01 3.750000e-02 0.0
5.625000e-01 3.750000e-02 0.0
5.750000e-01 3.750000e-02 0.0
5.875000e-01 3.750000e-02 0.0
6.000000e-01 3.750000e-02 0.0
6.125000e-01 3.750000e-02 0.0
6.250000e-01 3.750000e-02 0.0
6.375000e-01 3.750000e-02 0.0
6.500000e-01 3.750000e-02 0.0
6.625000e-01 3.750000e-02 0.0
6.750000e-01 3.750000e-02 0.0
6.875000e-01 3.750000e-02 0.0
7.000000e-01 3.750000e-02 0.0
7.125000e-01 3.750000e-02 0.0
7.250000e-01 3.750000e-02 0.0
7.375000e-01 3.750000e-02 0.0
7.500000e-01 3.750000e-02 0.0
7.625000e-01 3.750000e-02 0.0
7.750000e-01 3.750000e-02 0.0
7.875000e-01 3.750000e-02 0.0
8.000000e-01 3.750000e-02 0.0
8.125000e-01 3.750000e-02 0.0
8.250000e-01 3.750000e-02 0.0
8.375000e-01 3.750000e-02 0.0
8.500000e-01 3.750000e-02 0.0
8.625000e-01 3.750000e-02 0.0
8.750000e-01 3.750000e-02 0.0
8.875000e-01 3.750000e-02 0.0
9.000000e-01 3.750000e-02 0.0
9.125000e-01 3.750000e-02 0.0
9.250000e-01 3.750000e-02 0.0
9.375000e-01 3.750000e-02 0.0
9.500000e-01 3.750000e-02 0.0
9.625000e-01 3.750000e-02 0.0
9.750000e-01 3.750000e-02 0.0
9.875000e-01 3.750000e-02 0.0
1.000000e+00 3.750000e-02 0.0
0.000000e+00 5.000000e-02 0.0
1.250000e-02 5.000000e-02 0.0
2.500000e-02 5.000000e-02 0.0
3.750000e-02 5.000000e-02 0.0
[...]
CELL_DATA 6400
SCALARS Temperature double 1
LOOKUP_TABLE default
5.000000e-01
2.183455e-01
1.238364e-01
8.326149e-02
6.172975e-02
4.848067e-02
3.950628e-02
3.302796e-02
2.813820e-02
2.432363e-02
2.127105e-02
1.877812e-02
1.670822e-02
1.496567e-02
1.348151e-02
1.220473e-02
1.109683e-02
1.012818e-02
9.275623e-03
8.520795e-03
7.848960e-03
7.248148e-03
6.708543e-03
6.222023e-03
5.781806e-03
5.382190e-03
5.018350e-03
4.686170e-03
4.382125e-03
4.103176e-03
3.846692e-03
3.610382e-03
3.392245e-03
3.190523e-03
3.003671e-03
2.830320e-03
2.669258e-03
2.519404e-03
2.379795e-03
2.249571e-03
2.127956e-03
2.014256e-03
1.907844e-03
1.808152e-03
1.714669e-03
1.626927e-03
1.544505e-03
1.467018e-03
1.394113e-03
1.325472e-03
1.260800e-03
1.199830e-03
1.142316e-03
1.088032e-03
1.036773e-03
9.883485e-04
9.425857e-04
8.993253e-04
8.584220e-04
8.197432e-04
7.831681e-04
7.485878e-04
7.159043e-04
6.850302e-04
6.558892e-04
6.284155e-04
6.025546e-04
5.782632e-04
5.555101e-04
5.342772e-04
5.145604e-04
4.963713e-04
4.797388e-04
4.647117e-04
4.513612e-04
4.397844e-04
4.301088e-04
4.224966e-04
4.171512e-04
4.143242e-04
7.816545e-01
5.000000e-01
3.407302e-01
2.481432e-01
1.905863e-01
1.522818e-01
1.252782e-01
1.053497e-01
9.010466e-02
7.810624e-02
6.844493e-02
6.051900e-02
5.391525e-02
4.834089e-02
4.358287e-02
3.948252e-02
3.591936e-02
3.280027e-02
3.005218e-02
2.761697e-02
2.544785e-02
2.350676e-02
2.176240e-02
2.018884e-02
1.876438e-02
1.747078e-02
1.629255e-02
1.521649e-02
1.423128e-02
1.332714e-02
1.249560e-02
1.172930e-02
1.102178e-02
1.036737e-02
9.761099e-03
9.198538e-03
8.675775e-03
8.189323e-03
7.736070e-03
7.313228e-03
6.918298e-03
6.549030e-03
6.203393e-03
5.879555e-03
5.575854e-03
5.290785e-03
5.022975e-03
4.771180e-03
4.534260e-03
4.311178e-03
4.100984e-03
3.902808e-03
3.715853e-03
3.539391e-03
3.372751e-03
3.215319e-03
3.066532e-03
2.925875e-03
2.792876e-03
2.667104e-03
2.548169e-03
2.435715e-03
2.329426e-03
2.229018e-03
2.134243e-03
2.044888e-03
1.960776e-03
1.881767e-03
1.807759e-03
1.738694e-03
1.674559e-03
1.615393e-03
1.561288e-03
1.512406e-03
1.468976e-03
1.431316e-03
1.399841e-03
1.375077e-03
1.357688e-03
1.348491e-03
8.761636e-01
6.592698e-01
5.000000e-01
3.885423e-01
3.102041e-01
2.537994e-01
2.119784e-01
1.800779e-01
1.551220e-01
1.351690e-01
1.189174e-01
1.054695e-01
9.419024e-02
8.461913e-02
7.641509e-02
6.932060e-02
6.313785e-02
5.771257e-02
5.292280e-02
4.867089e-02
4.487782e-02
4.147897e-02
3.842103e-02
3.565965e-02
3.315763e-02
3.088358e-02
2.881081e-02
2.691653e-02
2.518111e-02
2.358763e-02
2.212136e-02
2.076950e-02
1.952081e-02
1.836541e-02
1.729461e-02
1.630067e-02
1.537677e-02
1.451679e-02
1.371528e-02
1.296736e-02
1.226865e-02
1.161519e-02
1.100342e-02
1.043012e-02
9.892375e-03
9.387528e-03
8.913170e-03
8.467107e-03
8.047334e-03
7.652023e-03
7.279500e-03
6.928231e-03
6.596814e-03
6.283960e-03
5.988487e-03
5.709313e-03
5.445442e-03
5.195966e-03
4.960051e-03
4.736937e-03
4.525933e-03
4.326414e-03
4.137817e-03
3.959643e-03
3.791453e-03
3.632873e-03
3.483588e-03
3.343351e-03
3.211985e-03
3.089388e-03
2.975537e-03
2.870500e-03
2.774448e-03
2.687662e-03
2.610556e-03
2.543692e-03
2.487807e-03
2.443839e-03
2.412963e-03
2.396634e-03
9.167385e-01
7.518568e-01
6.114577e-01
5.000000e-01
4.136936e-01
3.469719e-01
2.948981e-01
2.536805e-01
2.205541e-01
1.935332e-01
1.711887e-01
1.524814e-01
1.366457e-01
1.231085e-01
1.114349e-01
1.012899e-01
9.241186e-02
8.459419e-02
7.767157e-02
7.151044e-02
6.600185e-02
6.105608e-02
5.659870e-02
5.256742e-02
4.890979e-02
4.558135e-02
4.254420e-02
3.976579e-02
3.721811e-02
3.487687e-02
3.272093e-02
3.073182e-02
2.889336e-02
2.719126e-02
2.561291e-02
2.414715e-02
2.278402e-02
2.151465e-02
2.033111e-02
1.922628e-02
1.819377e-02
1.722782e-02
1.632321e-02
1.547523e-02
1.467962e-02
1.393248e-02
1.323030e-02
1.256984e-02
1.194817e-02
1.136260e-02
1.081068e-02
1.029015e-02
9.798943e-03
9.335171e-03
8.897093e-03
8.483115e-03
8.091772e-03
7.721724e-03
7.371743e-03
7.040710e-03
6.727606e-03
6.431509e-03
6.151590e-03
5.887113e-03
5.637432e-03
5.401993e-03
5.180336e-03
4.972096e-03
4.777013e-03
4.594938e-03
4.425842e-03
4.269829e-03
4.127151e-03
3.998233e-03
3.883688e-03
3.784355e-03
3.701329e-03
3.636006e-03
3.590134e-03
3.565874e-03
9.382703e-01
8.094137e-01
6.897959e-01
5.863064e-01
5.000000e-01
4.291496e-01
3.711852e-01
3.235984e-01
2.842570e-01
2.514532e-01
2.238537e-01
2.004274e-01
1.803764e-01
1.630805e-01
1.480543e-01
1.349143e-01
1.233549e-01
1.131306e-01
1.040422e-01
9.592654e-02
8.864943e-02
8.209923e-02
7.618255e-02
7.082079e-02
6.594733e-02
6.150538e-02
5.744630e-02
5.372819e-02
5.031478e-02
4.717456e-02
4.428001e-02
4.160703e-02
3.913440e-02
3.684341e-02
3.471747e-02
3.274185e-02
3.090343e-02
2.919048e-02
2.759250e-02
2.610004e-02
2.470461e-02
2.339855e-02
2.217493e-02
2.102746e-02
1.995045e-02
1.893871e-02
1.798753e-02
1.709258e-02
1.624995e-02
1.545603e-02
1.470752e-02
1.400141e-02
1.333492e-02
1.270550e-02
1.211083e-02
1.154875e-02
1.101730e-02
1.051467e-02
1.003921e-02
9.589420e-03
9.163917e-03
8.761464e-03
8.380944e-03
8.021365e-03
7.681857e-03
7.361675e-03
7.060198e-03
6.776939e-03
6.511550e-03
6.263833e-03
6.033753e-03
5.821457e-03
5.627294e-03
5.451843e-03
5.295946e-03
5.160745e-03
5.047736e-03
4.958820e-03
4.896378e-03
4.863354e-03
9.515193e-01
8.477182e-01
7.462006e-01
6.530281e-01
5.708504e-01
5.000000e-01
4.396003e-01
3.883094e-01
3.447241e-01
3.075624e-01
2.757248e-01
2.482975e-01
2.245337e-01
2.038264e-01
1.856828e-01
1.697025e-01
1.555583e-01
1.429818e-01
1.317516e-01
1.216837e-01
1.126246e-01
1.044455e-01
9.703735e-02
9.030774e-02
8.417772e-02
7.857957e-02
7.345491e-02
6.875323e-02
6.443056e-02
6.044857e-02
5.677363e-02
5.337618e-02
5.023015e-02
4.731243e-02
4.460253e-02
4.208217e-02
3.973504e-02
3.754655e-02
3.550357e-02
3.359432e-02
3.180815e-02
3.013546e-02
2.856753e-02
2.709647e-02
2.571510e-02
2.441689e-02
2.319587e-02
2.204660e-02
2.096411e-02
1.994384e-02
1.898161e-02
1.807359e-02
1.721626e-02
1.640639e-02
1.564102e-02
1.491741e-02
1.423306e-02
1.358567e-02
1.297314e-02
1.239354e-02
1.184514e-02
1.132634e-02
1.083572e-02
1.037202e-02
9.934135e-03
9.521107e-03
9.132151e-03
8.766650e-03
8.424162e-03
8.104442e-03
7.807452e-03
7.533391e-03
7.282715e-03
7.056180e-03
6.854877e-03
6.680288e-03
6.534348e-03
6.419518e-03
6.338876e-03
6.296225e-03
9.604937e-01
8.747218e-01
7.880216e-01
7.051019e-01
6.288148e-01
5.603997e-01
5.000000e-01
4.471386e-01
4.010549e-01
3.609083e-01
3.258869e-01
2.952563e-01
2.683763e-01
2.446992e-01
2.237621e-01
2.051758e-01
1.886132e-01
1.737996e-01
1.605039e-01
1.485307e-01
1.377145e-01
1.279145e-01
1.190106e-01
1.108995e-01
1.034926e-01
9.671288e-02
9.049387e-02
8.477748e-02
7.951294e-02
7.465573e-02
7.016664e-02
6.601105e-02
6.215829e-02
5.858111e-02
5.525524e-02
5.215900e-02
4.927296e-02
4.657971e-02
4.406355e-02
4.171034e-02
3.950732e-02
3.744290e-02
3.550659e-02
3.368886e-02
3.198102e-02
3.037516e-02
2.886405e-02
2.744107e-02
2.610019e-02
2.483585e-02
2.364296e-02
2.251685e-02
2.145323e-02
2.044814e-02
1.949796e-02
1.859935e-02
1.774924e-02
1.694482e-02
1.618351e-02
1.546295e-02
1.478099e-02
1.413570e-02
1.352533e-02
1.294833e-02
1.240334e-02
1.188919e-02
1.140492e-02
1.094977e-02
1.052322e-02
1.012497e-02
9.754981e-03
9.413516e-03
9.101154e-03
8.818846e-03
8.567961e-03
8.350355e-03
8.168445e-03
8.025306e-03
7.924780e-03
7.871612e-03
9.669720e-01
8.946503e-01
8.199221e-01
7.463195e-01
6.764016e-01
6.116906e-01
5.528614e-01
5.000000e-01
4.528357e-01
4.109121e-01
3.736998e-01
3.406632e-01
3.112967e-01
2.851417e-01
2.617912e-01
2.408898e-01
2.221290e-01
2.052431e-01
1.900028e-01
1.762108e-01
1.636972e-01
1.523153e-01
1.419380e-01
1.324552e-01
1.237711e-01
1.158022e-01
1.084753e-01
1.017263e-01
9.549884e-02
8.974298e-02
8.441467e-02
7.947479e-02
7.488853e-02
7.062483e-02
6.665593e-02
6.295694e-02
5.950550e-02
5.628149e-02
5.326674e-02
5.044483e-02
4.780090e-02
4.532146e-02
4.299423e-02
4.080806e-02
3.875276e-02
3.681903e-02
3.499837e-02
3.328298e-02
3.166572e-02
3.014005e-02
2.869993e-02
2.733985e-02
2.605469e-02
2.483978e-02
2.369081e-02
2.260380e-02
2.157511e-02
2.060138e-02
1.967955e-02
1.880680e-02
1.798058e-02
1.719857e-02
1.645868e-02
1.575908e-02
1.509813e-02
1.447445e-02
1.388689e-02
1.333457e-02
1.281685e-02
1.233340e-02
1.188419e-02
1.146955e-02
1.109021e-02
1.074732e-02
1.044257e-02
1.017822e-02
9.957225e-03
9.783319e-03
9.661180e-03
9.596579e-03
9.718618e-01
9.098953e-01
8.448780e-01
7.794459e-01
7.157430e-01
6.552759e-01
5.989451e-01
5.471643e-01
5.000000e-01
4.572954e-01
4.187659e-01
3.840651e-01
3.528285e-01
3.246990e-01
2.993415e-01
2.764497e-01
2.557479e-01
2.369910e-01
2.199624e-01
2.044714e-01
1.903504e-01
1.774526e-01
1.656489e-01
1.548259e-01
1.448839e-01
1.357352e-01
1.273021e-01
1.195161e-01
1.123162e-01
1.056486e-01
9.946510e-02
9.372275e-02
8.838321e-02
8.341208e-02
7.877847e-02
7.445459e-02
7.041539e-02
6.663824e-02
6.310265e-02
5.979006e-02
5.668361e-02
5.376794e-02
5.102909e-02
4.845430e-02
4.603192e-02
4.375129e-02
4.160263e-02
3.957698e-02
3.766613e-02
3.586249e-02
3.415911e-02
3.254960e-02
3.102804e-02
2.958900e-02
2.822747e-02
2.693885e-02
2.571889e-02
2.456368e-02
2.346965e-02
2.243352e-02
2.145231e-02
2.052332e-02
1.964411e-02
1.881254e-02
1.802671e-02
1.728501e-02
1.658611e-02
1.592897e-02
1.531288e-02
1.473746e-02
1.420270e-02
1.370902e-02
1.325729e-02
1.284892e-02
1.248594e-02
1.217105e-02
1.190777e-02
1.170058e-02
1.155506e-02
1.147809e-02
9.756764e-01
9.218938e-01
8.648310e-01
8.064668e-01
7.485468e-01
6.924376e-01
6.390917e-01
5.890879e-01
5.427046e-01
5.000000e-01
4.608839e-01
4.251739e-01
3.926372e-01
3.630194e-01
3.360629e-01
3.115189e-01
2.891535e-01
2.687514e-01
2.501163e-01
2.330713e-01
2.174575e-01
2.031331e-01
1.899714e-01
1.778594e-01
1.666968e-01
1.563938e-01
1.468706e-01
1.380559e-01
1.298860e-01
1.223038e-01
1.152583e-01
1.087035e-01
1.025981e-01
9.690509e-02
9.159079e-02
8.662493e-02
8.198008e-02
7.763136e-02
7.355618e-02
6.973400e-02
6.614609e-02
6.277540e-02
5.960631e-02
5.662457e-02
5.381711e-02
5.117195e-02
4.867809e-02
4.632542e-02
4.410465e-02
4.200722e-02
4.002524e-02
3.815143e-02
3.637909e-02
3.470203e-02
3.311455e-02
3.161139e-02
3.018770e-02
2.883901e-02
2.756125e-02
2.635065e-02
2.520380e-02
2.411762e-02
2.308932e-02
2.211642e-02
2.119677e-02
2.032853e-02
1.951017e-02
1.874052e-02
1.801878e-02
1.734454e-02
1.671783e-02
1.613916e-02
1.560957e-02
1.513076e-02
1.470510e-02
1.433580e-02
1.402700e-02
1.378398e-02
1.361328e-02
1.352299e-02
9.787290e-01
9.315551e-01
8.810826e-01
8.288113e-01
7.761463e-01
7.242752e-01
6.741131e-01
6.263002e-01
5.812341e-01
5.391161e-01
5.000000e-01
4.638357e-01
4.305047e-01
3.998473e-01
3.716825e-01
3.458212e-01
3.220761e-01
3.002666e-01
2.802228e-01
2.617869e-01
2.448136e-01
2.291704e-01
2.147369e-01
2.014041e-01
1.890737e-01
1.776567e-01
1.670729e-01
1.572503e-01
1.481237e-01
1.396343e-01
1.317290e-01
1.243599e-01
1.174835e-01
1.110606e-01
1.050555e-01
9.943585e-02
9.417215e-02
8.923762e-02
8.460783e-02
8.026047e-02
7.617516e-02
7.233324e-02
6.871764e-02
6.531267e-02
6.210396e-02
5.907826e-02
5.622342e-02
5.352822e-02
5.098234e-02
4.857625e-02
4.630114e-02
4.414891e-02
4.211205e-02
4.018364e-02
3.835727e-02
3.662703e-02
3.498749e-02
3.343362e-02
3.196081e-02
3.056484e-02
2.924187e-02
2.798840e-02
2.680129e-02
2.567777e-02
2.461539e-02
2.361209e-02
2.266617e-02
2.177631e-02
2.094163e-02
2.016170e-02
1.943659e-02
1.876693e-02
1.815398e-02
1.759969e-02
1.710687e-02
1.667925e-02
1.632166e-02
1.604021e-02
1.584252e-02
1.573794e-02
9.812219e-01
9.394810e-01
8.945305e-01
8.475186e-01
7.995726e-01
7.517025e-01
7.047437e-01
6.593368e-01
6.159349e-01
5.748261e-01
5.361643e-01
5.000000e-01
4.663081e-01
4.350114e-01
4.059989e-01
3.791396e-01
3.542933e-01
3.313168e-01
3.100695e-01
2.904163e-01
2.722292e-01
2.553887e-01
2.397838e-01
2.253123e-01
2.118804e-01
1.994023e-01
1.877997e-01
1.770011e-01
1.669414e-01
1.575616e-01
1.488075e-01
1.406302e-01
1.329849e-01
1.258308e-01
1.191307e-01
1.128507e-01
1.069598e-01
1.014296e-01
9.623406e-02
9.134945e-02
8.675392e-02
8.242743e-02
7.835155e-02
7.450935e-02
7.088522e-02
6.746477e-02
6.423476e-02
6.118294e-02
5.829799e-02
5.556948e-02
5.298774e-02
5.054382e-02
4.822946e-02
4.603701e-02
4.395939e-02
4.199006e-02
4.012298e-02
3.835258e-02
3.667374e-02
3.508177e-02
3.357240e-02
3.214173e-02
3.078628e-02
2.950295e-02
2.828903e-02
2.714224e-02
2.606069e-02
2.504294e-02
2.408805e-02
2.319556e-02
2.236561e-02
2.159895e-02
2.089708e-02
2.026229e-02
1.969780e-02
1.920794e-02
1.879825e-02
1.847576e-02
1.824923e-02
1.812940e-02
9.832918e-01
9.460848e-01
9.058098e-01
8.633543e-01
8.196236e-01
7.754663e-01
7.316237e-01
6.887033e-01
6.471715e-01
6.073628e-01
5.694953e-01
5.336919e-01
5.000000e-01
4.684105e-01
4.388736e-01
4.113115e-01
3.856287e-01
3.617195e-01
3.394740e-01
3.187815e-01
2.995336e-01
2.816262e-01
2.649604e-01
2.494429e-01
2.349869e-01
2.215115e-01
2.089420e-01
1.972092e-01
1.862497e-01
1.760049e-01
1.664213e-01
1.574494e-01
1.490441e-01
1.411638e-01
1.337705e-01
1.268291e-01
1.203074e-01
1.141760e-01
1.084077e-01
1.029773e-01
9.786208e-02
9.304061e-02
8.849339e-02
8.420235e-02
8.015081e-02
7.632335e-02
7.270573e-02
6.928476e-02
6.604821e-02
6.298478e-02
6.008398e-02
5.733611e-02
5.473215e-02
5.226377e-02
4.992323e-02
4.770338e-02
4.559761e-02
4.359980e-02
4.170436e-02
3.990611e-02
3.820036e-02
3.658283e-02
3.504971e-02
3.359757e-02
3.222346e-02
3.092486e-02
2.969972e-02
2.854649e-02
2.746416e-02
2.645229e-02
2.551108e-02
2.464145e-02
2.384514e-02
2.312480e-02
2.248413e-02
2.192808e-02
2.146299e-02
2.109686e-02
2.083965e-02
2.070359e-02
9.850343e-01
9.516591e-01
9.153809e-01
8.768915e-01
8.369195e-01
7.961736e-01
7.553008e-01
7.148583e-01
6.753010e-01
6.369806e-01
6.001527e-01
5.649886e-01
5.315895e-01
5.000000e-01
4.702213e-01
4.422222e-01
4.159481e-01
3.913288e-01
3.682844e-01
3.467293e-01
3.265760e-01
3.077371e-01
2.901272e-01
2.736642e-01
2.582696e-01
2.438693e-01
2.303934e-01
2.177768e-01
2.059587e-01
1.948826e-01
1.844960e-01
1.747503e-01
1.656005e-01
1.570052e-01
1.489259e-01
1.413271e-01
1.341761e-01
1.274424e-01
1.210981e-01
1.151174e-01
1.094762e-01
1.041525e-01
9.912559e-02
9.437663e-02
8.988798e-02
8.564333e-02
8.162754e-02
7.782658e-02
7.422741e-02
7.081793e-02
6.758691e-02
6.452392e-02
6.161926e-02
5.886393e-02
5.624959e-02
5.376851e-02
5.141351e-02
4.917798e-02
4.705583e-02
4.504144e-02
4.312972e-02
4.131601e-02
3.959616e-02
3.796647e-02
3.642371e-02
3.496516e-02
3.358863e-02
3.229245e-02
3.107557e-02
2.993757e-02
2.887875e-02
2.790022e-02
2.700399e-02
2.619309e-02
2.547176e-02
2.484561e-02
2.432181e-02
2.390944e-02
2.361972e-02
2.346645e-02
9.865185e-01
9.564171e-01
9.235849e-01
8.885651e-01
8.519457e-01
8.143172e-01
7.762379e-01
7.382088e-01
7.006585e-01
6.639371e-01
6.283175e-01
5.940011e-01
5.611264e-01
5.297787e-01
5.000000e-01
4.717982e-01
4.451548e-01
4.200319e-01
3.963777e-01
3.741314e-01
3.532261e-01
3.335920e-01
3.151584e-01
2.978549e-01
2.816130e-01
2.663664e-01
2.520517e-01
2.386087e-01
2.259804e-01
2.141132e-01
2.029568e-01
1.924644e-01
1.825918e-01
1.732984e-01
1.645458e-01
1.562987e-01
1.485242e-01
1.411915e-01
1.342723e-01
1.277400e-01
1.215702e-01
1.157399e-01
1.102279e-01
1.050146e-01
1.000815e-01
9.541162e-02
9.098908e-02
8.679909e-02
8.282791e-02
7.906274e-02
7.549166e-02
7.210359e-02
6.888821e-02
6.583591e-02
6.293778e-02
6.018554e-02
5.757150e-02
5.508855e-02
5.273016e-02
5.049029e-02
4.836344e-02
4.634462e-02
4.442935e-02
4.261364e-02
4.089405e-02
3.926766e-02
3.773212e-02
3.628570e-02
3.492730e-02
3.365655e-02
3.247388e-02
3.138061e-02
3.037903e-02
2.947264e-02
2.866621e-02
2.796607e-02
2.738031e-02
2.691911e-02
2.659506e-02
2.642362e-02
9.877953e-01
9.605175e-01
9.306794e-01
8.987101e-01
8.650857e-01
8.302975e-01
7.948242e-01
7.591102e-01
7.235503e-01
6.884811e-01
6.541788e-01
6.208604e-01
5.886885e-01
5.577778e-01
5.282018e-01
5.000000e-01
4.731845e-01
4.477457e-01
4.236578e-01
4.008828e-01
3.793740e-01
3.590790e-01
3.399420e-01
3.219053e-01
3.049108e-01
2.889012e-01
2.738202e-01
2.596135e-01
2.462290e-01
2.336169e-01
2.217298e-01
2.105233e-01
1.999550e-01
1.899854e-01
1.805773e-01
1.716957e-01
1.633081e-01
1.553839e-01
1.478945e-01
1.408132e-01
1.341153e-01
1.277773e-01
1.217777e-01
1.160962e-01
1.107138e-01
1.056129e-01
1.007771e-01
9.619089e-02
9.184003e-02
8.771107e-02
8.379153e-02
8.006972e-02
7.653478e-02
7.317655e-02
6.998561e-02
6.695315e-02
6.407103e-02
6.133170e-02
5.872818e-02
5.625404e-02
5.390343e-02
5.167103e-02
4.955204e-02
4.754223e-02
4.563794e-02
4.383608e-02
4.213418e-02
4.053043e-02
3.902374e-02
3.761381e-02
3.630119e-02
3.508744e-02
3.397523e-02
3.296848e-02
3.207259e-02
3.129464e-02
3.064370e-02
3.013112e-02
2.977094e-02
2.958039e-02
9.889032e-01
9.640806e-01
9.368622e-01
9.075881e-01
8.766451e-01
8.444417e-01
8.113868e-01
7.778710e-01
7.442521e-01
7.108465e-01
6.779239e-01
6.457067e-01
6.143713e-01
5.840519e-01
5.548452e-01
5.268155e-01
5.000000e-01
4.744133e-01
4.500525e-01
4.269002e-01
4.049289e-01
3.841028e-01
3.643807e-01
3.457178e-01
3.280669e-01
3.113798e-01
2.956084e-01
2.807049e-01
2.666226e-01
2.533163e-01
2.407425e-01
2.288594e-01
2.176272e-01
2.070083e-01
1.969668e-01
1.874689e-01
1.784828e-01
1.699783e-01
1.619272e-01
1.543031e-01
1.470809e-01
1.402372e-01
1.337502e-01
1.275993e-01
1.217652e-01
1.162298e-01
1.109762e-01
1.059886e-01
1.012521e-01
9.675296e-02
9.247803e-02
8.841520e-02
8.455311e-02
8.088114e-02
7.738939e-02
7.406863e-02
7.091027e-02
6.790635e-02
6.504951e-02
6.233298e-02
5.975055e-02
5.729660e-02
5.496608e-02
5.275451e-02
5.065804e-02
4.867342e-02
4.679809e-02
4.503020e-02
4.336868e-02
4.181330e-02
4.036482e-02
3.902504e-02
3.779701e-02
3.668517e-02
3.569555e-02
3.483606e-02
3.411679e-02
3.355033e-02
3.315227e-02
3.294166e-02
9.898718e-01
9.671997e-01
9.422874e-01
9.154058e-01
8.868694e-01
8.570182e-01
8.262004e-01
7.947569e-01
7.630090e-01
7.312486e-01
6.997334e-01
6.686832e-01
6.382805e-01
6.086712e-01
5.799681e-01
5.522543e-01
5.255867e-01
5.000000e-01
4.755108e-01
4.521204e-01
4.298182e-01
4.085843e-01
3.883914e-01
3.692071e-01
3.509953e-01
3.337173e-01
3.173332e-01
3.018023e-01
2.870838e-01
2.731378e-01
2.599248e-01
2.474066e-01
2.355466e-01
2.243092e-01
2.136606e-01
2.035685e-01
1.940021e-01
1.849324e-01
1.763318e-01
1.681740e-01
1.604346e-01
1.530902e-01
1.461188e-01
1.395000e-01
1.332141e-01
1.272429e-01
1.215693e-01
1.161770e-01
1.110509e-01
1.061767e-01
1.015410e-01
9.713129e-02
9.293579e-02
8.894347e-02
8.514403e-02
8.152788e-02
7.808603e-02
7.481018e-02
7.169262e-02
6.872625e-02
6.590458e-02
6.322171e-02
6.067235e-02
5.825183e-02
5.595611e-02
5.378183e-02
5.172636e-02
4.978783e-02
4.796520e-02
4.625839e-02
4.466834e-02
4.319716e-02
4.184831e-02
4.062677e-02
3.953928e-02
3.859462e-02
3.780395e-02
3.718119e-02
3.674352e-02
3.651194e-02
9.907244e-01
9.699478e-01
9.470772e-01
9.223284e-01
8.959578e-01
8.682484e-01
8.394961e-01
8.099972e-01
7.800376e-01
7.498837e-01
7.197772e-01
6.899305e-01
6.605260e-01
6.317156e-01
6.036223e-01
5.763422e-01
5.499475e-01
5.244892e-01
5.000000e-01
4.764973e-01
4.539856e-01
4.324592e-01
4.119041e-01
3.922998e-01
3.736206e-01
3.558375e-01
3.389188e-01
3.228312e-01
3.075402e-01
2.930113e-01
2.792098e-01
2.661014e-01
2.536528e-01
2.418312e-01
2.306053e-01
2.199445e-01
2.098198e-01
2.002033e-01
1.910683e-01
1.823895e-01
1.741428e-01
1.663054e-01
1.588555e-01
1.517726e-01
1.450374e-01
1.386315e-01
1.325375e-01
1.267393e-01
1.212212e-01
1.159689e-01
1.109687e-01
1.062077e-01
1.016739e-01
9.735587e-02
9.324303e-02
8.932546e-02
8.559387e-02
8.203964e-02
7.865477e-02
7.543189e-02
7.236425e-02
6.944571e-02
6.667079e-02
6.403464e-02
6.153309e-02
5.916268e-02
5.692074e-02
5.480541e-02
5.281573e-02
5.095176e-02
4.921469e-02
4.760697e-02
4.613249e-02
4.479684e-02
4.360748e-02
4.257414e-02
4.170910e-02
4.102767e-02
4.054874e-02
4.029531e-02
9.914792e-01
9.723830e-01
9.513291e-01
9.284896e-01
9.040735e-01
8.783163e-01
8.514693e-01
8.237892e-01
7.955286e-01
7.669287e-01
7.382131e-01
7.095837e-01
6.812185e-01