# vtk DataFile Version 3.0
QUICK scheme_Pe = 100,Grid 81x81,000852.vtk
ASCII
DATASET STRUCTURED_GRID
DIMENSIONS 81 81 1
POINTS 6561 double
0.000000e+00 0.000000e+00 0.0
1.250000e-02 0.000000e+00 0.0
2.500000e-02 0.000000e+00 0.0
3.750000e-02 0.000000e+00 0.0
5.000000e-02 0.000000e+00 0.0
6.250000e-02 0.000000e+00 0.0
7.500000e-02 0.000000e+00 0.0
8.750000e-02 0.000000e+00 0.0
1.000000e-01 0.000000e+00 0.0
1.125000e-01 0.000000e+00 0.0
1.250000e-01 0.000000e+00 0.0
1.375000e-01 0.000000e+00 0.0
1.500000e-01 0.000000e+00 0.0
1.625000e-01 0.000000e+00 0.0
1.750000e-01 0.000000e+00 0.0
1.875000e-01 0.000000e+00 0.0
2.000000e-01 0.000000e+00 0.0
2.125000e-01 0.000000e+00 0.0
2.250000e-01 0.000000e+00 0.0
2.375000e-01 0.000000e+00 0.0
2.500000e-01 0.000000e+00 0.0
2.625000e-01 0.000000e+00 0.0
2.750000e-01 0.000000e+00 0.0
2.875000e-01 0.000000e+00 0.0
3.000000e-01 0.000000e+00 0.0
3.125000e-01 0.000000e+00 0.0
3.250000e-01 0.000000e+00 0.0
3.375000e-01 0.000000e+00 0.0
3.500000e-01 0.000000e+00 0.0
3.625000e-01 0.000000e+00 0.0
3.750000e-01 0.000000e+00 0.0
3.875000e-01 0.000000e+00 0.0
4.000000e-01 0.000000e+00 0.0
4.125000e-01 0.000000e+00 0.0
4.250000e-01 0.000000e+00 0.0
4.375000e-01 0.000000e+00 0.0
4.500000e-01 0.000000e+00 0.0
4.625000e-01 0.000000e+00 0.0
4.750000e-01 0.000000e+00 0.0
4.875000e-01 0.000000e+00 0.0
5.000000e-01 0.000000e+00 0.0
5.125000e-01 0.000000e+00 0.0
5.250000e-01 0.000000e+00 0.0
5.375000e-01 0.000000e+00 0.0
5.500000e-01 0.000000e+00 0.0
5.625000e-01 0.000000e+00 0.0
5.750000e-01 0.000000e+00 0.0
5.875000e-01 0.000000e+00 0.0
6.000000e-01 0.000000e+00 0.0
6.125000e-01 0.000000e+00 0.0
6.250000e-01 0.000000e+00 0.0
6.375000e-01 0.000000e+00 0.0
6.500000e-01 0.000000e+00 0.0
6.625000e-01 0.000000e+00 0.0
6.750000e-01 0.000000e+00 0.0
6.875000e-01 0.000000e+00 0.0
7.000000e-01 0.000000e+00 0.0
7.125000e-01 0.000000e+00 0.0
7.250000e-01 0.000000e+00 0.0
7.375000e-01 0.000000e+00 0.0
7.500000e-01 0.000000e+00 0.0
7.625000e-01 0.000000e+00 0.0
7.750000e-01 0.000000e+00 0.0
7.875000e-01 0.000000e+00 0.0
8.000000e-01 0.000000e+00 0.0
8.125000e-01 0.000000e+00 0.0
8.250000e-01 0.000000e+00 0.0
8.375000e-01 0.000000e+00 0.0
8.500000e-01 0.000000e+00 0.0
8.625000e-01 0.000000e+00 0.0
8.750000e-01 0.000000e+00 0.0
8.875000e-01 0.000000e+00 0.0
9.000000e-01 0.000000e+00 0.0
9.125000e-01 0.000000e+00 0.0
9.250000e-01 0.000000e+00 0.0
9.375000e-01 0.000000e+00 0.0
9.500000e-01 0.000000e+00 0.0
9.625000e-01 0.000000e+00 0.0
9.750000e-01 0.000000e+00 0.0
9.875000e-01 0.000000e+00 0.0
1.000000e+00 0.000000e+00 0.0
0.000000e+00 1.250000e-02 0.0
1.250000e-02 1.250000e-02 0.0
2.500000e-02 1.250000e-02 0.0
3.750000e-02 1.250000e-02 0.0
5.000000e-02 1.250000e-02 0.0
6.250000e-02 1.250000e-02 0.0
7.500000e-02 1.250000e-02 0.0
8.750000e-02 1.250000e-02 0.0
1.000000e-01 1.250000e-02 0.0
1.125000e-01 1.250000e-02 0.0
1.250000e-01 1.250000e-02 0.0
1.375000e-01 1.250000e-02 0.0
1.500000e-01 1.250000e-02 0.0
1.625000e-01 1.250000e-02 0.0
1.750000e-01 1.250000e-02 0.0
1.875000e-01 1.250000e-02 0.0
2.000000e-01 1.250000e-02 0.0
2.125000e-01 1.250000e-02 0.0
2.250000e-01 1.250000e-02 0.0
2.375000e-01 1.250000e-02 0.0
2.500000e-01 1.250000e-02 0.0
2.625000e-01 1.250000e-02 0.0
2.750000e-01 1.250000e-02 0.0
2.875000e-01 1.250000e-02 0.0
3.000000e-01 1.250000e-02 0.0
3.125000e-01 1.250000e-02 0.0
3.250000e-01 1.250000e-02 0.0
3.375000e-01 1.250000e-02 0.0
3.500000e-01 1.250000e-02 0.0
3.625000e-01 1.250000e-02 0.0
3.750000e-01 1.250000e-02 0.0
3.875000e-01 1.250000e-02 0.0
4.000000e-01 1.250000e-02 0.0
4.125000e-01 1.250000e-02 0.0
4.250000e-01 1.250000e-02 0.0
4.375000e-01 1.250000e-02 0.0
4.500000e-01 1.250000e-02 0.0
4.625000e-01 1.250000e-02 0.0
4.750000e-01 1.250000e-02 0.0
4.875000e-01 1.250000e-02 0.0
5.000000e-01 1.250000e-02 0.0
5.125000e-01 1.250000e-02 0.0
5.250000e-01 1.250000e-02 0.0
5.375000e-01 1.250000e-02 0.0
5.500000e-01 1.250000e-02 0.0
5.625000e-01 1.250000e-02 0.0
5.750000e-01 1.250000e-02 0.0
5.875000e-01 1.250000e-02 0.0
6.000000e-01 1.250000e-02 0.0
6.125000e-01 1.250000e-02 0.0
6.250000e-01 1.250000e-02 0.0
6.375000e-01 1.250000e-02 0.0
6.500000e-01 1.250000e-02 0.0
6.625000e-01 1.250000e-02 0.0
6.750000e-01 1.250000e-02 0.0
6.875000e-01 1.250000e-02 0.0
7.000000e-01 1.250000e-02 0.0
7.125000e-01 1.250000e-02 0.0
7.250000e-01 1.250000e-02 0.0
7.375000e-01 1.250000e-02 0.0
7.500000e-01 1.250000e-02 0.0
7.625000e-01 1.250000e-02 0.0
7.750000e-01 1.250000e-02 0.0
7.875000e-01 1.250000e-02 0.0
8.000000e-01 1.250000e-02 0.0
8.125000e-01 1.250000e-02 0.0
8.250000e-01 1.250000e-02 0.0
8.375000e-01 1.250000e-02 0.0
8.500000e-01 1.250000e-02 0.0
8.625000e-01 1.250000e-02 0.0
8.750000e-01 1.250000e-02 0.0
8.875000e-01 1.250000e-02 0.0
9.000000e-01 1.250000e-02 0.0
9.125000e-01 1.250000e-02 0.0
9.250000e-01 1.250000e-02 0.0
9.375000e-01 1.250000e-02 0.0
9.500000e-01 1.250000e-02 0.0
9.625000e-01 1.250000e-02 0.0
9.750000e-01 1.250000e-02 0.0
9.875000e-01 1.250000e-02 0.0
1.000000e+00 1.250000e-02 0.0
0.000000e+00 2.500000e-02 0.0
1.250000e-02 2.500000e-02 0.0
2.500000e-02 2.500000e-02 0.0
3.750000e-02 2.500000e-02 0.0
5.000000e-02 2.500000e-02 0.0
6.250000e-02 2.500000e-02 0.0
7.500000e-02 2.500000e-02 0.0
8.750000e-02 2.500000e-02 0.0
1.000000e-01 2.500000e-02 0.0
1.125000e-01 2.500000e-02 0.0
1.250000e-01 2.500000e-02 0.0
1.375000e-01 2.500000e-02 0.0
1.500000e-01 2.500000e-02 0.0
1.625000e-01 2.500000e-02 0.0
1.750000e-01 2.500000e-02 0.0
1.875000e-01 2.500000e-02 0.0
2.000000e-01 2.500000e-02 0.0
2.125000e-01 2.500000e-02 0.0
2.250000e-01 2.500000e-02 0.0
2.375000e-01 2.500000e-02 0.0
2.500000e-01 2.500000e-02 0.0
2.625000e-01 2.500000e-02 0.0
2.750000e-01 2.500000e-02 0.0
2.875000e-01 2.500000e-02 0.0
3.000000e-01 2.500000e-02 0.0
3.125000e-01 2.500000e-02 0.0
3.250000e-01 2.500000e-02 0.0
3.375000e-01 2.500000e-02 0.0
3.500000e-01 2.500000e-02 0.0
3.625000e-01 2.500000e-02 0.0
3.750000e-01 2.500000e-02 0.0
3.875000e-01 2.500000e-02 0.0
4.000000e-01 2.500000e-02 0.0
4.125000e-01 2.500000e-02 0.0
4.250000e-01 2.500000e-02 0.0
4.375000e-01 2.500000e-02 0.0
4.500000e-01 2.500000e-02 0.0
4.625000e-01 2.500000e-02 0.0
4.750000e-01 2.500000e-02 0.0
4.875000e-01 2.500000e-02 0.0
5.000000e-01 2.500000e-02 0.0
5.125000e-01 2.500000e-02 0.0
5.250000e-01 2.500000e-02 0.0
5.375000e-01 2.500000e-02 0.0
5.500000e-01 2.500000e-02 0.0
5.625000e-01 2.500000e-02 0.0
5.750000e-01 2.500000e-02 0.0
5.875000e-01 2.500000e-02 0.0
6.000000e-01 2.500000e-02 0.0
6.125000e-01 2.500000e-02 0.0
6.250000e-01 2.500000e-02 0.0
6.375000e-01 2.500000e-02 0.0
6.500000e-01 2.500000e-02 0.0
6.625000e-01 2.500000e-02 0.0
6.750000e-01 2.500000e-02 0.0
6.875000e-01 2.500000e-02 0.0
7.000000e-01 2.500000e-02 0.0
7.125000e-01 2.500000e-02 0.0
7.250000e-01 2.500000e-02 0.0
7.375000e-01 2.500000e-02 0.0
7.500000e-01 2.500000e-02 0.0
7.625000e-01 2.500000e-02 0.0
7.750000e-01 2.500000e-02 0.0
7.875000e-01 2.500000e-02 0.0
8.000000e-01 2.500000e-02 0.0
8.125000e-01 2.500000e-02 0.0
8.250000e-01 2.500000e-02 0.0
8.375000e-01 2.500000e-02 0.0
8.500000e-01 2.500000e-02 0.0
8.625000e-01 2.500000e-02 0.0
8.750000e-01 2.500000e-02 0.0
8.875000e-01 2.500000e-02 0.0
9.000000e-01 2.500000e-02 0.0
9.125000e-01 2.500000e-02 0.0
9.250000e-01 2.500000e-02 0.0
9.375000e-01 2.500000e-02 0.0
9.500000e-01 2.500000e-02 0.0
9.625000e-01 2.500000e-02 0.0
9.750000e-01 2.500000e-02 0.0
9.875000e-01 2.500000e-02 0.0
1.000000e+00 2.500000e-02 0.0
0.000000e+00 3.750000e-02 0.0
1.250000e-02 3.750000e-02 0.0
2.500000e-02 3.750000e-02 0.0
3.750000e-02 3.750000e-02 0.0
5.000000e-02 3.750000e-02 0.0
6.250000e-02 3.750000e-02 0.0
7.500000e-02 3.750000e-02 0.0
8.750000e-02 3.750000e-02 0.0
1.000000e-01 3.750000e-02 0.0
1.125000e-01 3.750000e-02 0.0
1.250000e-01 3.750000e-02 0.0
1.375000e-01 3.750000e-02 0.0
1.500000e-01 3.750000e-02 0.0
1.625000e-01 3.750000e-02 0.0
1.750000e-01 3.750000e-02 0.0
1.875000e-01 3.750000e-02 0.0
2.000000e-01 3.750000e-02 0.0
2.125000e-01 3.750000e-02 0.0
2.250000e-01 3.750000e-02 0.0
2.375000e-01 3.750000e-02 0.0
2.500000e-01 3.750000e-02 0.0
2.625000e-01 3.750000e-02 0.0
2.750000e-01 3.750000e-02 0.0
2.875000e-01 3.750000e-02 0.0
3.000000e-01 3.750000e-02 0.0
3.125000e-01 3.750000e-02 0.0
3.250000e-01 3.750000e-02 0.0
3.375000e-01 3.750000e-02 0.0
3.500000e-01 3.750000e-02 0.0
3.625000e-01 3.750000e-02 0.0
3.750000e-01 3.750000e-02 0.0
3.875000e-01 3.750000e-02 0.0
4.000000e-01 3.750000e-02 0.0
4.125000e-01 3.750000e-02 0.0
4.250000e-01 3.750000e-02 0.0
4.375000e-01 3.750000e-02 0.0
4.500000e-01 3.750000e-02 0.0
4.625000e-01 3.750000e-02 0.0
4.750000e-01 3.750000e-02 0.0
4.875000e-01 3.750000e-02 0.0
5.000000e-01 3.750000e-02 0.0
5.125000e-01 3.750000e-02 0.0
5.250000e-01 3.750000e-02 0.0
5.375000e-01 3.750000e-02 0.0
5.500000e-01 3.750000e-02 0.0
5.625000e-01 3.750000e-02 0.0
5.750000e-01 3.750000e-02 0.0
5.875000e-01 3.750000e-02 0.0
6.000000e-01 3.750000e-02 0.0
6.125000e-01 3.750000e-02 0.0
6.250000e-01 3.750000e-02 0.0
6.375000e-01 3.750000e-02 0.0
6.500000e-01 3.750000e-02 0.0
6.625000e-01 3.750000e-02 0.0
6.750000e-01 3.750000e-02 0.0
6.875000e-01 3.750000e-02 0.0
7.000000e-01 3.750000e-02 0.0
7.125000e-01 3.750000e-02 0.0
7.250000e-01 3.750000e-02 0.0
7.375000e-01 3.750000e-02 0.0
7.500000e-01 3.750000e-02 0.0
7.625000e-01 3.750000e-02 0.0
7.750000e-01 3.750000e-02 0.0
7.875000e-01 3.750000e-02 0.0
8.000000e-01 3.750000e-02 0.0
8.125000e-01 3.750000e-02 0.0
8.250000e-01 3.750000e-02 0.0
8.375000e-01 3.750000e-02 0.0
8.500000e-01 3.750000e-02 0.0
8.625000e-01 3.750000e-02 0.0
8.750000e-01 3.750000e-02 0.0
8.875000e-01 3.750000e-02 0.0
9.000000e-01 3.750000e-02 0.0
9.125000e-01 3.750000e-02 0.0
9.250000e-01 3.750000e-02 0.0
9.375000e-01 3.750000e-02 0.0
9.500000e-01 3.750000e-02 0.0
9.625000e-01 3.750000e-02 0.0
9.750000e-01 3.750000e-02 0.0
9.875000e-01 3.750000e-02 0.0
1.000000e+00 3.750000e-02 0.0
0.000000e+00 5.000000e-02 0.0
1.250000e-02 5.000000e-02 0.0
2.500000e-02 5.000000e-02 0.0
3.750000e-02 5.000000e-02 0.0
[...]
CELL_DATA 6400
SCALARS Temperature double 1
LOOKUP_TABLE default
5.000000e-01
1.698165e-01
6.832203e-02
3.289048e-02
1.796524e-02
1.059275e-02
6.546255e-03
4.174487e-03
2.723185e-03
1.807652e-03
1.216690e-03
8.282855e-04
5.692504e-04
3.943915e-04
2.751467e-04
1.931178e-04
1.362648e-04
9.660177e-05
6.877132e-05
4.914337e-05
3.523708e-05
2.534406e-05
1.827999e-05
1.321895e-05
9.581830e-06
6.960674e-06
5.066811e-06
3.695182e-06
2.699592e-06
1.975474e-06
1.447802e-06
1.062603e-06
7.809411e-07
5.746684e-07
4.233862e-07
3.122825e-07
2.305811e-07
1.704279e-07
1.260887e-07
9.337037e-08
6.920231e-08
5.133254e-08
3.810736e-08
2.831089e-08
2.104806e-08
1.565926e-08
1.165784e-08
8.684428e-09
6.473349e-09
4.828044e-09
3.602947e-09
2.690170e-09
2.009685e-09
1.502084e-09
1.123236e-09
8.403311e-10
6.289639e-10
4.709667e-10
3.528071e-10
2.643999e-10
1.982241e-10
1.486678e-10
1.115419e-10
8.371715e-11
6.285525e-11
4.720792e-11
3.546746e-11
2.665527e-11
2.003871e-11
1.506908e-11
1.133522e-11
8.528957e-12
6.419213e-12
4.832639e-12
3.639173e-12
2.741233e-12
2.065789e-12
1.559114e-12
1.186066e-12
9.444146e-13
8.301835e-01
5.000000e-01
2.888694e-01
1.690057e-01
1.017983e-01
6.317484e-02
4.022701e-02
2.615958e-02
1.730467e-02
1.160836e-02
7.878078e-03
5.398984e-03
3.730955e-03
2.596846e-03
1.818813e-03
1.280904e-03
9.064829e-04
6.443005e-04
4.597379e-04
3.292005e-04
2.364816e-04
1.703721e-04
1.230712e-04
8.912050e-05
6.468137e-05
4.704222e-05
3.427978e-05
2.502483e-05
1.829931e-05
1.340236e-05
9.830322e-06
7.220302e-06
5.310171e-06
3.910163e-06
2.882601e-06
2.127406e-06
1.571692e-06
1.162284e-06
8.603270e-07
6.373846e-07
4.726154e-07
3.507238e-07
2.604701e-07
1.935846e-07
1.439760e-07
1.071527e-07
7.979893e-08
5.946492e-08
4.433877e-08
3.307923e-08
2.469257e-08
1.844199e-08
1.378069e-08
1.030263e-08
7.706040e-09
5.766516e-09
4.317058e-09
3.233315e-09
2.422633e-09
1.815937e-09
1.361702e-09
1.021472e-09
7.665283e-10
5.754173e-10
4.321017e-10
3.245883e-10
2.439043e-10
1.833334e-10
1.378465e-10
1.036759e-10
7.799815e-11
5.869649e-11
4.418328e-11
3.326740e-11
2.505497e-11
1.887524e-11
1.422612e-11
1.073819e-11
8.169827e-12
6.505952e-12
9.316780e-01
7.111306e-01
5.000000e-01
3.382336e-01
2.257429e-01
1.505663e-01
1.009472e-01
6.818442e-02
4.642174e-02
3.184872e-02
2.200676e-02
1.530513e-02
1.070688e-02
7.529794e-03
5.320744e-03
3.775998e-03
2.690211e-03
1.923457e-03
1.379702e-03
9.926019e-04
7.160563e-04
5.178550e-04
3.753835e-04
2.726931e-04
1.984900e-04
1.447469e-04
1.057382e-04
7.736752e-05
5.669502e-05
4.160549e-05
3.057309e-05
2.249457e-05
1.657047e-05
1.222032e-05
9.021836e-06
6.667272e-06
4.931966e-06
3.651657e-06
2.706070e-06
2.007009e-06
1.489719e-06
1.106595e-06
8.225994e-07
6.119127e-07
4.554906e-07
3.392708e-07
2.528596e-07
1.885679e-07
1.407025e-07
1.050442e-07
7.846391e-08
5.863905e-08
4.384451e-08
3.279801e-08
2.454576e-08
1.837789e-08
1.376571e-08
1.031524e-08
7.732713e-09
5.798973e-09
4.350423e-09
3.264888e-09
2.451075e-09
1.840737e-09
1.382833e-09
1.039169e-09
7.811555e-10
5.873803e-10
4.418027e-10
3.324000e-10
2.501577e-10
1.883146e-10
1.417973e-10
1.067981e-10
8.045806e-11
6.063112e-11
4.571027e-11
3.451275e-11
2.626510e-11
2.092082e-11
9.671095e-01
8.309943e-01
6.617664e-01
5.000000e-01
3.656137e-01
2.623542e-01
1.864011e-01
1.318540e-01
9.316406e-02
6.587799e-02
4.666927e-02
3.314084e-02
2.359666e-02
1.684721e-02
1.206112e-02
8.657543e-03
6.230203e-03
4.494239e-03
3.249379e-03
2.354394e-03
1.709380e-03
1.243447e-03
9.061433e-04
6.614575e-04
4.836155e-04
3.541216e-04
2.596702e-04
1.906669e-04
1.401783e-04
1.031833e-04
7.603857e-05
5.609568e-05
4.142594e-05
3.062253e-05
2.265766e-05
1.677937e-05
1.243670e-05
9.225437e-06
6.848658e-06
5.087992e-06
3.782649e-06
2.814113e-06
2.094937e-06
1.560533e-06
1.163153e-06
8.674664e-07
6.473077e-07
4.832838e-07
3.610095e-07
2.698061e-07
2.017410e-07
1.509171e-07
1.129478e-07
8.456791e-08
6.334550e-08
4.746816e-08
3.558442e-08
2.668595e-08
2.002008e-08
1.502465e-08
1.127960e-08
8.470896e-09
6.363659e-09
4.782142e-09
3.594777e-09
2.703036e-09
2.033098e-09
1.529636e-09
1.151165e-09
8.665706e-10
6.525052e-10
4.914448e-10
3.702316e-10
2.789831e-10
2.102748e-10
1.585299e-10
1.195700e-10
9.031840e-11
6.876354e-11
5.479181e-11
9.820348e-01
8.982017e-01
7.742571e-01
6.343863e-01
5.000000e-01
3.832331e-01
2.881091e-01
2.137930e-01
1.572972e-01
1.151059e-01
8.395782e-02
6.112994e-02
4.447491e-02
3.235511e-02
2.354719e-02
1.714896e-02
1.250050e-02
9.121425e-03
6.663112e-03
4.872901e-03
3.567798e-03
2.615253e-03
1.919204e-03
1.409977e-03
1.036989e-03
7.634727e-04
5.626716e-04
4.150910e-04
3.065091e-04
2.265374e-04
1.675784e-04
1.240691e-04
9.193101e-05
6.817111e-05
5.059011e-05
3.757035e-05
2.792078e-05
2.076354e-05
1.545096e-05
1.150483e-05
8.571666e-06
6.390009e-06
4.766285e-06
3.557070e-06
2.656015e-06
1.984205e-06
1.483042e-06
1.108981e-06
8.296436e-07
6.209402e-07
4.649354e-07
3.482684e-07
2.609810e-07
1.956463e-07
1.467226e-07
1.100729e-07
8.260707e-08
6.201586e-08
4.657286e-08
3.498674e-08
2.629121e-08
1.976289e-08
1.486002e-08
1.117672e-08
8.408746e-09
6.328013e-09
4.763426e-09
3.586614e-09
2.701220e-09
2.034898e-09
1.533310e-09
1.155632e-09
8.711825e-10
6.568955e-10
4.954283e-10
3.737428e-10
2.820624e-10
2.131837e-10
1.623990e-10
1.294656e-10
9.894073e-01
9.368252e-01
8.494337e-01
7.376458e-01
6.167669e-01
5.000000e-01
3.956473e-01
3.073413e-01
2.354520e-01
1.785252e-01
1.343357e-01
1.005236e-01
7.492000e-02
5.567778e-02
4.129496e-02
3.058625e-02
2.263512e-02
1.674277e-02
1.238173e-02
9.156649e-03
6.772696e-03
5.010814e-03
3.708643e-03
2.746061e-03
2.034296e-03
1.507792e-03
1.118154e-03
8.296619e-04
6.159465e-04
4.575393e-04
3.400610e-04
2.528869e-04
1.881630e-04
1.400802e-04
1.043398e-04
7.775878e-05
5.797892e-05
4.325209e-05
3.228162e-05
2.410513e-05
1.800797e-05
1.345909e-05
1.006369e-05
7.528091e-06
5.633692e-06
4.217717e-06
3.158880e-06
2.366767e-06
1.773946e-06
1.330097e-06
9.976543e-07
7.485601e-07
5.618485e-07
4.218459e-07
3.168305e-07
2.380317e-07
1.788851e-07
1.344750e-07
1.011193e-07
7.605855e-08
5.722435e-08
4.306550e-08
3.241837e-08
2.440973e-08
1.838411e-08
1.384928e-08
1.043553e-08
7.865061e-09
5.929083e-09
4.470630e-09
3.371657e-09
2.543370e-09
1.918956e-09
1.448133e-09
1.093050e-09
8.252198e-10
6.232626e-10
4.714127e-10
3.593702e-10
2.866702e-10
9.934537e-01
9.597730e-01
8.990528e-01
8.135989e-01
7.118909e-01
6.043527e-01
5.000000e-01
4.049424e-01
3.223387e-01
2.530582e-01
1.964934e-01
1.512485e-01
1.156234e-01
8.791153e-02
6.655705e-02
5.022144e-02
3.779619e-02
2.838721e-02
2.128701e-02
1.594353e-02
1.193058e-02
8.921738e-03
6.668563e-03
4.982846e-03
3.722543e-03
2.780760e-03
2.077229e-03
1.551785e-03
1.159388e-03
8.663517e-04
6.475058e-04
4.840486e-04
3.619426e-04
2.707095e-04
2.025284e-04
1.515625e-04
1.134550e-04
8.495407e-05
6.363186e-05
4.767555e-05
3.573120e-05
2.678737e-05
2.008826e-05
1.506897e-05
1.130714e-05
8.486881e-06
6.371889e-06
4.785324e-06
3.594808e-06
2.701217e-06
2.030302e-06
1.526431e-06
1.147908e-06
8.634723e-07
6.496795e-07
4.889418e-07
3.680617e-07
2.771324e-07
2.087158e-07
1.572254e-07
1.184643e-07
8.927875e-08
6.729802e-08
5.073975e-08
3.826348e-08
2.886084e-08
2.177309e-08
1.642918e-08
1.239924e-08
9.359574e-09
7.066381e-09
5.336009e-09
4.030076e-09
3.044288e-09
2.300038e-09
1.738087e-09
1.313922e-09
9.946880e-10
7.589325e-10
6.058541e-10
9.958255e-01
9.738404e-01
9.318156e-01
8.681460e-01
7.862070e-01
6.926587e-01
5.950576e-01
5.000000e-01
4.122108e-01
3.344216e-01
2.676959e-01
2.119093e-01
1.662092e-01
1.293759e-01
1.000745e-01
7.700906e-02
5.900670e-02
4.505321e-02
3.429906e-02
2.604902e-02
1.974403e-02
1.494058e-02
1.129047e-02
8.522658e-03
6.427540e-03
4.843898e-03
3.648277e-03
2.746474e-03
2.066818e-03
1.554911e-03
1.169545e-03
8.795554e-04
6.614047e-04
4.973344e-04
3.739583e-04
2.811936e-04
2.114497e-04
1.590150e-04
1.195934e-04
8.995423e-05
6.766859e-05
5.091070e-05
3.830819e-05
2.882959e-05
2.169963e-05
1.633562e-05
1.229958e-05
9.262281e-06
6.976210e-06
5.255283e-06
3.959570e-06
2.983842e-06
2.248949e-06
1.695350e-06
1.278248e-06
9.639316e-07
7.270304e-07
5.484457e-07
4.137985e-07
3.122609e-07
2.356781e-07
1.779070e-07
1.343192e-07
1.014270e-07
7.660180e-08
5.786197e-08
4.371349e-08
3.302971e-08
2.496091e-08
1.886607e-08
1.426155e-08
1.078241e-08
8.153187e-09
6.165967e-09
4.663783e-09
3.528177e-09
2.670003e-09
2.023398e-09
1.545384e-09
1.234754e-09
9.972768e-01
9.826953e-01
9.535783e-01
9.068359e-01
8.427028e-01
7.645480e-01
6.776613e-01
5.877892e-01
5.000000e-01
4.180818e-01
3.444068e-01
2.800926e-01
2.252966e-01
1.795283e-01
1.419195e-01
1.114293e-01
8.698530e-02
6.757004e-02
5.226859e-02
4.028778e-02
3.095842e-02
2.372738e-02
1.814470e-02
1.384900e-02
1.055296e-02
8.030078e-03
6.102976e-03
4.633564e-03
3.514834e-03
2.664197e-03
2.018125e-03
1.527889e-03
1.156202e-03
8.745920e-04
6.613551e-04
4.999716e-04
3.778839e-04
2.855567e-04
2.157561e-04
1.629989e-04
1.231317e-04
9.300994e-05
7.025426e-05
5.306500e-05
4.008145e-05
3.027504e-05
2.286851e-05
1.727459e-05
1.304965e-05
9.858601e-06
7.448350e-06
5.627769e-06
4.252520e-06
3.213607e-06
2.428719e-06
1.835699e-06
1.387609e-06
1.048999e-06
7.930971e-07
5.996835e-07
4.534850e-07
3.429646e-07
2.594070e-07
1.962278e-07
1.484520e-07
1.123204e-07
8.499198e-08
6.431974e-08
4.868078e-08
3.684831e-08
2.789488e-08
2.111922e-08
1.599107e-08
1.210944e-08
9.171037e-09
6.946618e-09
5.263374e-09
3.993471e-09
3.053563e-09
2.442214e-09
9.981923e-01
9.883916e-01
9.681513e-01
9.341220e-01
8.848941e-01
8.214748e-01
7.469418e-01
6.655784e-01
5.819182e-01
5.000000e-01
4.229446e-01
3.528270e-01
2.907537e-01
2.370471e-01
1.914622e-01
1.533896e-01
1.220206e-01
9.647079e-02
7.586331e-02
5.938025e-02
4.628998e-02
3.595768e-02
2.784523e-02
2.150467e-02
1.656853e-02
1.273887e-02
9.776521e-03
7.491004e-03
5.731682e-03
4.380099e-03
3.343566e-03
2.549860e-03
1.942913e-03
1.479327e-03
1.125610e-03
8.559705e-04
6.505894e-04
4.942644e-04
3.753530e-04
2.849509e-04
2.162561e-04
1.640787e-04
1.244619e-04
9.439192e-05
7.157466e-05
5.426512e-05
4.113666e-05
3.118119e-05
2.363306e-05
1.791090e-05
1.357350e-05
1.028605e-05
7.794592e-06
5.906503e-06
4.475730e-06
3.391546e-06
2.570013e-06
1.947509e-06
1.475820e-06
1.118405e-06
8.475767e-07
6.423551e-07
4.868435e-07
3.689973e-07
2.796908e-07
2.120095e-07
1.607149e-07
1.218376e-07
9.237027e-08
7.003405e-08
5.310228e-08
4.026658e-08
3.053546e-08
2.315759e-08
1.756360e-08
1.332227e-08
1.010796e-08
7.679450e-09
5.879623e-09
4.707738e-09
9.987833e-01
9.921219e-01
9.779932e-01
9.533307e-01
9.160422e-01
8.656643e-01
8.035066e-01
7.323041e-01
6.555932e-01
5.770554e-01
5.000000e-01
4.270534e-01
3.600455e-01
3.000412e-01
2.474583e-01
2.022206e-01
1.639105e-01
1.319029e-01
1.054705e-01
8.386037e-02
6.634597e-02
5.225799e-02
4.100054e-02
3.205658e-02
2.498641e-02
1.942219e-02
1.506020e-02
1.165242e-02
8.998217e-03
6.936513e-03
5.338876e-03
4.103486e-03
3.150018e-03
2.415381e-03
1.850209e-03
1.415997e-03
1.082804e-03
8.274073e-04
6.318327e-04
4.821995e-04
3.678062e-04
2.804155e-04
2.136961e-04
1.627878e-04
1.239636e-04
9.436905e-05
7.181940e-05
5.464413e-05
4.156676e-05
3.161261e-05
2.403784e-05
1.827512e-05
1.389193e-05
1.055869e-05
8.024323e-06
6.097675e-06
4.633221e-06
3.520219e-06
2.674415e-06
2.031724e-06
1.543409e-06
1.172416e-06
8.905728e-07
6.764685e-07
5.138292e-07
3.902883e-07
2.964491e-07
2.251722e-07
1.710335e-07
1.299126e-07
9.867941e-08
7.495639e-08
5.693757e-08
4.325129e-08
3.285581e-08
2.496042e-08
1.896687e-08
1.443130e-08
1.106493e-08
8.870530e-09
9.991717e-01
9.946010e-01
9.846949e-01
9.668592e-01
9.388701e-01
8.994764e-01
8.487515e-01
7.880907e-01
7.199074e-01
6.471730e-01
5.729466e-01
5.000000e-01
4.305821e-01
3.663190e-01
3.082212e-01
2.567596e-01
2.119745e-01
1.735924e-01
1.411334e-01
1.140007e-01
9.154993e-02
7.313809e-02
5.815658e-02
4.605033e-02
3.632715e-02
2.856012e-02
2.238548e-02
1.749772e-02
1.364340e-02
1.061435e-02
8.241155e-03
6.386887e-03
4.941647e-03
3.817705e-03
2.945380e-03
2.269564e-03
1.746845e-03
1.343138e-03
1.031766e-03
7.919029e-04
6.073300e-04
4.654458e-04
3.564772e-04
2.728580e-04
2.087402e-04
1.596100e-04
1.219879e-04
9.319501e-05
7.117106e-05
5.433290e-05
4.146520e-05
3.163573e-05
2.412993e-05
1.840043e-05
1.402823e-05
1.069274e-05
8.148812e-06
6.209057e-06
4.730311e-06
3.603233e-06
2.744350e-06
2.089950e-06
1.591427e-06
1.211703e-06
9.225040e-07
7.022746e-07
5.345837e-07
4.069095e-07
3.097107e-07
2.357186e-07
1.793961e-07
1.365264e-07
1.038978e-07
7.906519e-08
6.016683e-08
4.578639e-08
3.484990e-08
2.655924e-08
2.039586e-08
1.637317e-08
9.994307e-01
9.962690e-01
9.892931e-01
9.764033e-01
9.555251e-01
9.250800e-01
8.843766e-01
8.337908e-01
7.747034e-01
7.092463e-01
6.399545e-01
5.694179e-01
5.000000e-01
4.336535e-01
3.718341e-01
3.154939e-01
2.651302e-01
2.208644e-01
1.825316e-01
1.497676e-01
1.220841e-01
9.893042e-02
7.973951e-02
6.396018e-02
5.107829e-02
4.062860e-02
3.220007e-02
2.543639e-02
2.003355e-02
1.573551e-02
1.232904e-02
9.638256e-03
7.519234e-03
5.855068e-03
4.551380e-03
3.532404e-03
2.737605e-03
2.118830e-03
1.637922e-03
1.264752e-03
9.755980e-04
7.518402e-04
5.788973e-04
4.453777e-04
3.423996e-04
2.630514e-04
2.019637e-04
1.549715e-04
1.188491e-04
9.110078e-05
6.979868e-05
5.345471e-05
4.092155e-05
3.131541e-05
2.395609e-05
1.832045e-05
1.400647e-05
1.070541e-05
8.180273e-06
6.249291e-06
4.773087e-06
3.644857e-06
2.782790e-06
2.124248e-06
1.621289e-06
1.237232e-06
9.440219e-07
7.202078e-07
5.493922e-07
4.190444e-07
3.195906e-07
2.437182e-07
1.858425e-07
1.416996e-07
1.080347e-07
8.236548e-08
6.280485e-08
4.794815e-08
3.688418e-08
2.965313e-08
9.996056e-01
9.974032e-01
9.924702e-01
9.831528e-01
9.676449e-01
9.443222e-01
9.120885e-01
8.706241e-01
8.204717e-01
7.629529e-01
6.999588e-01
6.336810e-01
5.663465e-01
5.000000e-01
4.363573e-01
3.767303e-01
3.220129e-01
2.727123e-01
2.290060e-01
1.908118e-01
1.578576e-01
1.297458e-01
1.060067e-01
8.614079e-02
6.965070e-02
5.606214e-02
4.493774e-02
3.588429e-02
2.855546e-02
2.265127e-02
1.791554e-02
1.413207e-02
1.112027e-02
8.730615e-03
6.840264e-03
5.348978e-03
4.175453e-03
3.254098e-03
2.532247e-03
1.967792e-03
1.527198e-03
1.183847e-03
9.166803e-04
7.090831e-04
5.479806e-04
4.231080e-04
3.264242e-04
2.516421e-04
1.938550e-04
1.492398e-04
1.148221e-04
8.829127e-05
6.785443e-05
5.212213e-05
4.001879e-05
3.071263e-05
2.356099e-05
1.806779e-05
1.385039e-05
1.061389e-05
8.131156e-06
6.227350e-06
4.767994e-06
3.649700e-06
2.793024e-06
2.136952e-06
1.634645e-06
1.250164e-06
9.559384e-07
7.308326e-07
5.586444e-07
4.269599e-07
3.262699e-07
2.492927e-07
1.904541e-07
1.454909e-07
1.111545e-07
8.502158e-08
6.552340e-08
5.276130e-08
9.997249e-01
9.981812e-01
9.946793e-01
9.879389e-01
9.764528e-01
9.587050e-01
9.334430e-01
8.999255e-01
8.580805e-01
8.085378e-01
7.525417e-01
6.917788e-01
6.281659e-01
5.636427e-01
5.000000e-01
4.387606e-01
3.811139e-01
3.278982e-01
2.796198e-01
2.364953e-01
1.985052e-01
1.654517e-01
1.370124e-01
1.127874e-01
9.233794e-02
7.521578e-02
6.098487e-02
4.923573e-02
3.959417e-02
3.172556e-02
2.533599e-02
2.017112e-02
1.601357e-02
1.267965e-02
1.001551e-02
7.893405e-03
6.208027e-03
4.873117e-03
3.818428e-03
2.987051e-03
2.333093e-03
1.819699e-03
1.417388e-03
1.102653e-03
8.568149e-04
6.650690e-04
5.157144e-04
3.995244e-04
3.092401e-04
2.391614e-04
1.848214e-04
1.427251e-04
1.101426e-04
8.494448e-05
6.547220e-05
5.043551e-05
3.883188e-05
2.988316e-05
2.298602e-05
1.767306e-05
1.358257e-05
1.043481e-05
8.013632e-06
6.152133e-06
4.721521e-06
3.622480e-06
2.778470e-06
2.130531e-06
1.633274e-06
1.251774e-06
9.591658e-07
7.347986e-07
5.628012e-07
4.309818e-07
3.299794e-07
2.526133e-07
1.933966e-07
1.482286e-07
1.144601e-07
9.232291e-08
9.998069e-01
9.987191e-01
9.962240e-01
9.913425e-01
9.828510e-01
9.694138e-01
9.497786e-01
9.229909e-01
8.885707e-01
8.466104e-01
7.977794e-01
7.432404e-01
6.845061e-01
6.232697e-01
5.612394e-01
5.000000e-01
4.409147e-01
3.850675e-01
3.332448e-01
2.859456e-01
2.434124e-01
2.056743e-01
1.725932e-01
1.439096e-01
1.192839e-01
9.833084e-02
8.064742e-02
6.583365e-02
5.350742e-02
4.331404e-02
3.493181e-02
2.807438e-02
2.249082e-02
1.796419e-02
1.430900e-02
1.136831e-02
9.010433e-03
7.125759e-03
5.623655e-03
4.429652e-03
3.482896e-03
2.733906e-03
2.142628e-03
1.676776e-03
1.310415e-03
1.022791e-03
7.973413e-04
6.208884e-04
4.829755e-04
3.753246e-04
2.913974e-04
2.260399e-04
1.751976e-04
1.356862e-04
1.050093e-04
8.121236e-05
6.276771e-05
4.848261e-05
3.742712e-05
2.887695e-05
2.226865e-05
1.716431e-05
1.322392e-05
1.018371e-05
7.839247e-06
6.032181e-06
4.639969e-06
3.567836e-06
2.742532e-06
2.107478e-06
1.618996e-06
1.243388e-06
9.546674e-07
7.328043e-07
5.623704e-07
4.314929e-07
3.310739e-07
2.542992e-07
1.967778e-07
1.590063e-07
9.998637e-01
9.990935e-01
9.973098e-01
9.937698e-01
9.874995e-01
9.773649e-01
9.622038e-01
9.409933e-01
9.130147e-01
8.779794e-01
8.360895e-01
7.880255e-01
7.348698e-01
6.779871e-01
6.188861e-01
5.590853e-01
5.000000e-01
4.428593e-01
3.886564e-01
3.381293e-01
2.917655e-01
2.498250e-01
2.123736e-01
1.793217e-01
1.504626e-01
1.255087e-01
1.041221e-01
8.594094e-02
7.059906e-02
5.774071e-02
4.703082e-02
3.816131e-02
3.085452e-02
2.486421e-02
1.997509e-02
1.600117e-02
1.278344e-02
1.018717e-02
8.099193e-03
6.425074e-03
5.086562e-03
4.019179e-03
3.170077e-03
2.496150e-03
1.962391e-03
1.540481e-03
1.207597e-03
9.454083e-04
7.392343e-04
5.773533e-04
4.504301e-04
3.510481e-04
2.733286e-04
2.126211e-04
1.652543e-04
1.283350e-04
9.958708e-05
7.722262e-05
5.983934e-05
4.633891e-05
3.586217e-05
2.773787e-05
2.144218e-05
1.656670e-05
1.279342e-05
9.874865e-06
7.618692e-06
5.875489e-06
4.529302e-06
3.490203e-06
2.688504e-06
2.070231e-06
1.593612e-06
1.226335e-06
9.434256e-07
7.255999e-07
5.580363e-07
4.296093e-07
3.331704e-07
2.697320e-07
9.999034e-01
9.993557e-01
9.980765e-01
9.955058e-01
9.908786e-01
9.832572e-01
9.716128e-01
9.549468e-01
9.324300e-01
9.035292e-01
8.680971e-01
8.264076e-01
7.791356e-01
7.272877e-01
6.721018e-01
6.149325e-01
5.571407e-01
5.000000e-01
4.446260e-01
3.919329e-01
3.426139e-01
2.971427e-01
2.557899e-01
2.186500e-01
1.856725e-01
1.566951e-01
1.314748e-01
1.097160e-01
9.109416e-02
7.527433e-02
6.192607e-02
5.073364e-02
4.140299e-02
3.366587e-02
2.728176e-02
2.203809e-02
1.774936e-02
1.425544e-02
1.141941e-02
9.125213e-03
7.275187e-03
5.787732e-03
4.595076e-03
3.641245e-03
2.880244e-03
2.274453e-03
1.793228e-03
1.411707e-03
1.109793e-03
8.712886e-04
6.831832e-04
5.350541e-04
4.185738e-04
3.271045e-04
2.553678e-04
1.991746e-04
1.552073e-04
1.208427e-04
9.401103e-05
7.308105e-05
5.676955e-05
4.406834e-05
3.418641e-05
2.650391e-05
2.053569e-05
1.590246e-05
1.230797e-05
9.521104e-06
7.361681e-06
5.689389e-06
4.395038e-06
3.393726e-06
2.619490e-06
2.021114e-06
1.558865e-06
1.201963e-06
9.266672e-07
7.151197e-07
5.558842e-07
4.509428e-07
9.999312e-01
9.995403e-01
9.986203e-01
9.967506e-01
9.933369e-01
9.876183e-01
9.787130e-01
9.657009e-01
9.477314e-01
9.241367e-01
8.945295e-01
8.588666e-01
8.174684e-01
7.709940e-01
7.203802e-01
6.667552e-01
6.113436e-01
5.553740e-01
5.000000e-01
4.462403e-01
3.949394e-01
3.467498e-01
3.021297e-01
2.613561e-01
2.245448e-01
1.916774e-01
1.626291e-01
1.371955e-01
1.151184e-01
9.610678e-02
7.985485e-02
6.605607e-02
5.441354e-02
4.464733e-02
3.649915e-02
2.973489e-02
2.414559e-02
1.954710e-02
1.577902e-02
1.270296e-02
1.020063e-02
8.171674e-03
6.531568e-03
5.209582e-03
4.146868e-03
3.294721e-03
2.613030e-03
2.068906e-03
1.635489e-03
1.290932e-03
1.017519e-03
8.009379e-04
6.296555e-04
4.944065e-04
3.877659e-04
3.037980e-04
2.377684e-04
1.859088e-04
1.452257e-04
1.133457e-04
8.838995e-05
6.887399e-05
5.362640e-05
4.172429e-05
3.244149e-05
2.520743e-05
1.957425e-05
1.519090e-05
1.178243e-05
9.133794e-06
7.076892e-06
5.480488e-06
4.242196e-06
3.282211e-06
2.538385e-06
1.962390e-06
1.516831e-06
1.173510e-06
9.144388e-07
7.433697e-07
9.999509e-01
9.996708e-01
9.990074e-01
9.976456e-01
9.951271e-01
9.908434e-01
9.840565e-01
9.739510e-01
9.597122e-01
9.406197e-01
9.161396e-01
8.859993e-01
8.502324e-01