# vtk DataFile Version 3.0
QUICK scheme_Pe = 1000,Grid 41x41,001233.vtk
ASCII
DATASET STRUCTURED_GRID
DIMENSIONS 41 41 1
POINTS 1681 double
0.000000e+00 0.000000e+00 0.0
2.500000e-02 0.000000e+00 0.0
5.000000e-02 0.000000e+00 0.0
7.500000e-02 0.000000e+00 0.0
1.000000e-01 0.000000e+00 0.0
1.250000e-01 0.000000e+00 0.0
1.500000e-01 0.000000e+00 0.0
1.750000e-01 0.000000e+00 0.0
2.000000e-01 0.000000e+00 0.0
2.250000e-01 0.000000e+00 0.0
2.500000e-01 0.000000e+00 0.0
2.750000e-01 0.000000e+00 0.0
3.000000e-01 0.000000e+00 0.0
3.250000e-01 0.000000e+00 0.0
3.500000e-01 0.000000e+00 0.0
3.750000e-01 0.000000e+00 0.0
4.000000e-01 0.000000e+00 0.0
4.250000e-01 0.000000e+00 0.0
4.500000e-01 0.000000e+00 0.0
4.750000e-01 0.000000e+00 0.0
5.000000e-01 0.000000e+00 0.0
5.250000e-01 0.000000e+00 0.0
5.500000e-01 0.000000e+00 0.0
5.750000e-01 0.000000e+00 0.0
6.000000e-01 0.000000e+00 0.0
6.250000e-01 0.000000e+00 0.0
6.500000e-01 0.000000e+00 0.0
6.750000e-01 0.000000e+00 0.0
7.000000e-01 0.000000e+00 0.0
7.250000e-01 0.000000e+00 0.0
7.500000e-01 0.000000e+00 0.0
7.750000e-01 0.000000e+00 0.0
8.000000e-01 0.000000e+00 0.0
8.250000e-01 0.000000e+00 0.0
8.500000e-01 0.000000e+00 0.0
8.750000e-01 0.000000e+00 0.0
9.000000e-01 0.000000e+00 0.0
9.250000e-01 0.000000e+00 0.0
9.500000e-01 0.000000e+00 0.0
9.750000e-01 0.000000e+00 0.0
1.000000e+00 0.000000e+00 0.0
0.000000e+00 2.500000e-02 0.0
2.500000e-02 2.500000e-02 0.0
5.000000e-02 2.500000e-02 0.0
7.500000e-02 2.500000e-02 0.0
1.000000e-01 2.500000e-02 0.0
1.250000e-01 2.500000e-02 0.0
1.500000e-01 2.500000e-02 0.0
1.750000e-01 2.500000e-02 0.0
2.000000e-01 2.500000e-02 0.0
2.250000e-01 2.500000e-02 0.0
2.500000e-01 2.500000e-02 0.0
2.750000e-01 2.500000e-02 0.0
3.000000e-01 2.500000e-02 0.0
3.250000e-01 2.500000e-02 0.0
3.500000e-01 2.500000e-02 0.0
3.750000e-01 2.500000e-02 0.0
4.000000e-01 2.500000e-02 0.0
4.250000e-01 2.500000e-02 0.0
4.500000e-01 2.500000e-02 0.0
4.750000e-01 2.500000e-02 0.0
5.000000e-01 2.500000e-02 0.0
5.250000e-01 2.500000e-02 0.0
5.500000e-01 2.500000e-02 0.0
5.750000e-01 2.500000e-02 0.0
6.000000e-01 2.500000e-02 0.0
6.250000e-01 2.500000e-02 0.0
6.500000e-01 2.500000e-02 0.0
6.750000e-01 2.500000e-02 0.0
7.000000e-01 2.500000e-02 0.0
7.250000e-01 2.500000e-02 0.0
7.500000e-01 2.500000e-02 0.0
7.750000e-01 2.500000e-02 0.0
8.000000e-01 2.500000e-02 0.0
8.250000e-01 2.500000e-02 0.0
8.500000e-01 2.500000e-02 0.0
8.750000e-01 2.500000e-02 0.0
9.000000e-01 2.500000e-02 0.0
9.250000e-01 2.500000e-02 0.0
9.500000e-01 2.500000e-02 0.0
9.750000e-01 2.500000e-02 0.0
1.000000e+00 2.500000e-02 0.0
0.000000e+00 5.000000e-02 0.0
2.500000e-02 5.000000e-02 0.0
5.000000e-02 5.000000e-02 0.0
7.500000e-02 5.000000e-02 0.0
1.000000e-01 5.000000e-02 0.0
1.250000e-01 5.000000e-02 0.0
1.500000e-01 5.000000e-02 0.0
1.750000e-01 5.000000e-02 0.0
2.000000e-01 5.000000e-02 0.0
2.250000e-01 5.000000e-02 0.0
2.500000e-01 5.000000e-02 0.0
2.750000e-01 5.000000e-02 0.0
3.000000e-01 5.000000e-02 0.0
3.250000e-01 5.000000e-02 0.0
3.500000e-01 5.000000e-02 0.0
3.750000e-01 5.000000e-02 0.0
4.000000e-01 5.000000e-02 0.0
4.250000e-01 5.000000e-02 0.0
4.500000e-01 5.000000e-02 0.0
4.750000e-01 5.000000e-02 0.0
5.000000e-01 5.000000e-02 0.0
5.250000e-01 5.000000e-02 0.0
5.500000e-01 5.000000e-02 0.0
5.750000e-01 5.000000e-02 0.0
6.000000e-01 5.000000e-02 0.0
6.250000e-01 5.000000e-02 0.0
6.500000e-01 5.000000e-02 0.0
6.750000e-01 5.000000e-02 0.0
7.000000e-01 5.000000e-02 0.0
7.250000e-01 5.000000e-02 0.0
7.500000e-01 5.000000e-02 0.0
7.750000e-01 5.000000e-02 0.0
8.000000e-01 5.000000e-02 0.0
8.250000e-01 5.000000e-02 0.0
8.500000e-01 5.000000e-02 0.0
8.750000e-01 5.000000e-02 0.0
9.000000e-01 5.000000e-02 0.0
9.250000e-01 5.000000e-02 0.0
9.500000e-01 5.000000e-02 0.0
9.750000e-01 5.000000e-02 0.0
1.000000e+00 5.000000e-02 0.0
0.000000e+00 7.500000e-02 0.0
2.500000e-02 7.500000e-02 0.0
5.000000e-02 7.500000e-02 0.0
7.500000e-02 7.500000e-02 0.0
1.000000e-01 7.500000e-02 0.0
1.250000e-01 7.500000e-02 0.0
1.500000e-01 7.500000e-02 0.0
1.750000e-01 7.500000e-02 0.0
2.000000e-01 7.500000e-02 0.0
2.250000e-01 7.500000e-02 0.0
2.500000e-01 7.500000e-02 0.0
2.750000e-01 7.500000e-02 0.0
3.000000e-01 7.500000e-02 0.0
3.250000e-01 7.500000e-02 0.0
3.500000e-01 7.500000e-02 0.0
3.750000e-01 7.500000e-02 0.0
4.000000e-01 7.500000e-02 0.0
4.250000e-01 7.500000e-02 0.0
4.500000e-01 7.500000e-02 0.0
4.750000e-01 7.500000e-02 0.0
5.000000e-01 7.500000e-02 0.0
5.250000e-01 7.500000e-02 0.0
5.500000e-01 7.500000e-02 0.0
5.750000e-01 7.500000e-02 0.0
6.000000e-01 7.500000e-02 0.0
6.250000e-01 7.500000e-02 0.0
6.500000e-01 7.500000e-02 0.0
6.750000e-01 7.500000e-02 0.0
7.000000e-01 7.500000e-02 0.0
7.250000e-01 7.500000e-02 0.0
7.500000e-01 7.500000e-02 0.0
7.750000e-01 7.500000e-02 0.0
8.000000e-01 7.500000e-02 0.0
8.250000e-01 7.500000e-02 0.0
8.500000e-01 7.500000e-02 0.0
8.750000e-01 7.500000e-02 0.0
9.000000e-01 7.500000e-02 0.0
9.250000e-01 7.500000e-02 0.0
9.500000e-01 7.500000e-02 0.0
9.750000e-01 7.500000e-02 0.0
1.000000e+00 7.500000e-02 0.0
0.000000e+00 1.000000e-01 0.0
2.500000e-02 1.000000e-01 0.0
5.000000e-02 1.000000e-01 0.0
7.500000e-02 1.000000e-01 0.0
1.000000e-01 1.000000e-01 0.0
1.250000e-01 1.000000e-01 0.0
1.500000e-01 1.000000e-01 0.0
1.750000e-01 1.000000e-01 0.0
2.000000e-01 1.000000e-01 0.0
2.250000e-01 1.000000e-01 0.0
2.500000e-01 1.000000e-01 0.0
2.750000e-01 1.000000e-01 0.0
3.000000e-01 1.000000e-01 0.0
3.250000e-01 1.000000e-01 0.0
3.500000e-01 1.000000e-01 0.0
3.750000e-01 1.000000e-01 0.0
4.000000e-01 1.000000e-01 0.0
4.250000e-01 1.000000e-01 0.0
4.500000e-01 1.000000e-01 0.0
4.750000e-01 1.000000e-01 0.0
5.000000e-01 1.000000e-01 0.0
5.250000e-01 1.000000e-01 0.0
5.500000e-01 1.000000e-01 0.0
5.750000e-01 1.000000e-01 0.0
6.000000e-01 1.000000e-01 0.0
6.250000e-01 1.000000e-01 0.0
6.500000e-01 1.000000e-01 0.0
6.750000e-01 1.000000e-01 0.0
7.000000e-01 1.000000e-01 0.0
7.250000e-01 1.000000e-01 0.0
7.500000e-01 1.000000e-01 0.0
7.750000e-01 1.000000e-01 0.0
8.000000e-01 1.000000e-01 0.0
8.250000e-01 1.000000e-01 0.0
8.500000e-01 1.000000e-01 0.0
8.750000e-01 1.000000e-01 0.0
9.000000e-01 1.000000e-01 0.0
9.250000e-01 1.000000e-01 0.0
9.500000e-01 1.000000e-01 0.0
9.750000e-01 1.000000e-01 0.0
1.000000e+00 1.000000e-01 0.0
0.000000e+00 1.250000e-01 0.0
2.500000e-02 1.250000e-01 0.0
5.000000e-02 1.250000e-01 0.0
7.500000e-02 1.250000e-01 0.0
1.000000e-01 1.250000e-01 0.0
1.250000e-01 1.250000e-01 0.0
1.500000e-01 1.250000e-01 0.0
1.750000e-01 1.250000e-01 0.0
2.000000e-01 1.250000e-01 0.0
2.250000e-01 1.250000e-01 0.0
2.500000e-01 1.250000e-01 0.0
2.750000e-01 1.250000e-01 0.0
3.000000e-01 1.250000e-01 0.0
3.250000e-01 1.250000e-01 0.0
3.500000e-01 1.250000e-01 0.0
3.750000e-01 1.250000e-01 0.0
4.000000e-01 1.250000e-01 0.0
4.250000e-01 1.250000e-01 0.0
4.500000e-01 1.250000e-01 0.0
4.750000e-01 1.250000e-01 0.0
5.000000e-01 1.250000e-01 0.0
5.250000e-01 1.250000e-01 0.0
5.500000e-01 1.250000e-01 0.0
5.750000e-01 1.250000e-01 0.0
6.000000e-01 1.250000e-01 0.0
6.250000e-01 1.250000e-01 0.0
6.500000e-01 1.250000e-01 0.0
6.750000e-01 1.250000e-01 0.0
7.000000e-01 1.250000e-01 0.0
7.250000e-01 1.250000e-01 0.0
7.500000e-01 1.250000e-01 0.0
7.750000e-01 1.250000e-01 0.0
8.000000e-01 1.250000e-01 0.0
8.250000e-01 1.250000e-01 0.0
8.500000e-01 1.250000e-01 0.0
8.750000e-01 1.250000e-01 0.0
9.000000e-01 1.250000e-01 0.0
9.250000e-01 1.250000e-01 0.0
9.500000e-01 1.250000e-01 0.0
9.750000e-01 1.250000e-01 0.0
1.000000e+00 1.250000e-01 0.0
0.000000e+00 1.500000e-01 0.0
2.500000e-02 1.500000e-01 0.0
5.000000e-02 1.500000e-01 0.0
7.500000e-02 1.500000e-01 0.0
1.000000e-01 1.500000e-01 0.0
1.250000e-01 1.500000e-01 0.0
1.500000e-01 1.500000e-01 0.0
1.750000e-01 1.500000e-01 0.0
2.000000e-01 1.500000e-01 0.0
2.250000e-01 1.500000e-01 0.0
2.500000e-01 1.500000e-01 0.0
2.750000e-01 1.500000e-01 0.0
3.000000e-01 1.500000e-01 0.0
3.250000e-01 1.500000e-01 0.0
3.500000e-01 1.500000e-01 0.0
3.750000e-01 1.500000e-01 0.0
4.000000e-01 1.500000e-01 0.0
4.250000e-01 1.500000e-01 0.0
4.500000e-01 1.500000e-01 0.0
4.750000e-01 1.500000e-01 0.0
5.000000e-01 1.500000e-01 0.0
5.250000e-01 1.500000e-01 0.0
5.500000e-01 1.500000e-01 0.0
5.750000e-01 1.500000e-01 0.0
6.000000e-01 1.500000e-01 0.0
6.250000e-01 1.500000e-01 0.0
6.500000e-01 1.500000e-01 0.0
6.750000e-01 1.500000e-01 0.0
7.000000e-01 1.500000e-01 0.0
7.250000e-01 1.500000e-01 0.0
7.500000e-01 1.500000e-01 0.0
7.750000e-01 1.500000e-01 0.0
8.000000e-01 1.500000e-01 0.0
8.250000e-01 1.500000e-01 0.0
8.500000e-01 1.500000e-01 0.0
8.750000e-01 1.500000e-01 0.0
9.000000e-01 1.500000e-01 0.0
9.250000e-01 1.500000e-01 0.0
9.500000e-01 1.500000e-01 0.0
9.750000e-01 1.500000e-01 0.0
1.000000e+00 1.500000e-01 0.0
0.000000e+00 1.750000e-01 0.0
2.500000e-02 1.750000e-01 0.0
5.000000e-02 1.750000e-01 0.0
7.500000e-02 1.750000e-01 0.0
1.000000e-01 1.750000e-01 0.0
1.250000e-01 1.750000e-01 0.0
1.500000e-01 1.750000e-01 0.0
1.750000e-01 1.750000e-01 0.0
2.000000e-01 1.750000e-01 0.0
2.250000e-01 1.750000e-01 0.0
2.500000e-01 1.750000e-01 0.0
2.750000e-01 1.750000e-01 0.0
3.000000e-01 1.750000e-01 0.0
3.250000e-01 1.750000e-01 0.0
3.500000e-01 1.750000e-01 0.0
3.750000e-01 1.750000e-01 0.0
4.000000e-01 1.750000e-01 0.0
4.250000e-01 1.750000e-01 0.0
4.500000e-01 1.750000e-01 0.0
4.750000e-01 1.750000e-01 0.0
5.000000e-01 1.750000e-01 0.0
5.250000e-01 1.750000e-01 0.0
5.500000e-01 1.750000e-01 0.0
5.750000e-01 1.750000e-01 0.0
6.000000e-01 1.750000e-01 0.0
6.250000e-01 1.750000e-01 0.0
6.500000e-01 1.750000e-01 0.0
6.750000e-01 1.750000e-01 0.0
7.000000e-01 1.750000e-01 0.0
7.250000e-01 1.750000e-01 0.0
7.500000e-01 1.750000e-01 0.0
7.750000e-01 1.750000e-01 0.0
8.000000e-01 1.750000e-01 0.0
8.250000e-01 1.750000e-01 0.0
8.500000e-01 1.750000e-01 0.0
8.750000e-01 1.750000e-01 0.0
9.000000e-01 1.750000e-01 0.0
9.250000e-01 1.750000e-01 0.0
9.500000e-01 1.750000e-01 0.0
9.750000e-01 1.750000e-01 0.0
1.000000e+00 1.750000e-01 0.0
[...]
CELL_DATA 1600
SCALARS Temperature double 1
LOOKUP_TABLE default
5.000000e-01
7.678965e-02
-2.640296e-02
-2.283082e-02
-5.772834e-03
1.836795e-03
2.228708e-03
7.441266e-04
-1.536540e-04
-2.806591e-04
-1.184826e-04
9.222432e-06
3.896537e-05
2.041650e-05
7.778170e-07
-5.601501e-06
-3.632087e-06
-5.126469e-07
8.010633e-07
6.527665e-07
1.541252e-07
-1.094360e-07
-1.170548e-07
-3.843413e-08
1.333296e-08
2.075474e-08
8.790310e-09
-1.173980e-09
-3.607685e-09
-1.907715e-09
-3.042465e-11
6.084857e-10
3.985698e-10
5.343949e-11
-9.807636e-11
-8.067354e-11
-1.910581e-11
1.476153e-11
1.581386e-11
4.409068e-12
9.232104e-01
5.000000e-01
1.602840e-01
3.824424e-03
-2.935687e-02
-1.742764e-02
-3.219816e-03
2.334804e-03
2.146586e-03
6.359350e-04
-2.056302e-04
-2.977764e-04
-1.196730e-04
1.383887e-05
4.345997e-05
2.238378e-05
6.437669e-07
-6.412507e-06
-4.165014e-06
-6.002673e-07
9.263521e-07
7.681323e-07
1.886725e-07
-1.258588e-07
-1.397642e-07
-4.786630e-08
1.483972e-08
2.495414e-08
1.103656e-08
-1.128074e-09
-4.341271e-09
-2.403580e-09
-1.052568e-10
7.283553e-10
5.024246e-10
8.046949e-11
-1.158162e-10
-1.017895e-10
-2.540926e-11
1.419195e-11
1.026403e+00
8.397160e-01
5.000000e-01
1.993138e-01
2.988988e-02
-2.534784e-02
-2.331628e-02
-8.470337e-03
6.346010e-04
2.598733e-03
1.424519e-03
1.582531e-04
-3.043918e-04
-2.334271e-04
-5.557170e-05
3.470314e-05
3.830941e-05
1.339875e-05
-3.353901e-06
-6.252633e-06
-2.891440e-06
1.391836e-07
1.002331e-06
5.910440e-07
5.475251e-08
-1.551640e-07
-1.165642e-07
-2.407409e-08
2.256929e-08
2.231652e-08
6.902557e-09
-2.913163e-09
-4.150208e-09
-1.705674e-09
2.789226e-10
7.472981e-10
3.893991e-10
1.379300e-12
-1.308832e-10
-7.047560e-11
1.022831e+00
9.961756e-01
8.006862e-01
5.000000e-01
2.239522e-01
5.115405e-02
-1.820553e-02
-2.575275e-02
-1.283747e-02
-1.748197e-03
2.315960e-03
1.978914e-03
6.195813e-04
-1.706103e-04
-2.893237e-04
-1.340355e-04
1.172378e-06
4.132104e-05
2.599028e-05
3.832908e-06
-5.638779e-06
-4.805988e-06
-1.295733e-06
6.960777e-07
8.600544e-07
3.285799e-07
-6.627271e-08
-1.490574e-07
-7.439389e-08
7.344802e-10
2.484949e-08
1.579772e-08
2.010730e-09
-3.924790e-09
-3.206276e-09
-7.712021e-10
5.686973e-10
6.283462e-10
2.091761e-10
-5.896683e-11
1.005773e+00
1.029357e+00
9.701101e-01
7.760478e-01
5.000000e-01
2.416420e-01
6.887825e-02
-1.002677e-02
-2.599401e-02
-1.616069e-02
-4.287276e-03
1.526210e-03
2.241754e-03
1.063928e-03
5.477547e-05
-2.772238e-04
-1.982501e-04
-4.603076e-05
3.038456e-05
3.394298e-05
1.265122e-05
-2.387284e-06
-5.531796e-06
-2.835399e-06
-7.843883e-08
8.571401e-07
5.817165e-07
1.006121e-07
-1.235214e-07
-1.130465e-07
-3.306115e-08
1.561449e-08
2.104324e-08
8.534413e-09
-1.415074e-09
-3.755654e-09
-1.976414e-09
-3.320859e-11
6.467800e-10
3.582308e-10
9.981632e-01
1.017428e+00
1.025348e+00
9.488460e-01
7.583580e-01
5.000000e-01
2.553394e-01
8.401709e-02
-1.616420e-03
-2.481539e-02
-1.852716e-02
-6.721447e-03
4.207318e-04
2.229775e-03
1.428401e-03
3.248825e-04
-2.041635e-04
-2.355307e-04
-9.599219e-05
8.113838e-06
3.507116e-05
2.072745e-05
2.707876e-06
-4.757201e-06
-3.995738e-06
-1.110964e-06
5.520953e-07
7.211119e-07
2.947135e-07
-4.109955e-08
-1.231883e-07
-6.734254e-08
-3.671292e-09
1.979855e-08
1.419653e-08
2.743546e-09
-2.919983e-09
-2.837760e-09
-8.482232e-10
3.128722e-10
9.977713e-01
1.003220e+00
1.023316e+00
1.018206e+00
9.311217e-01
7.446606e-01
5.000000e-01
2.664659e-01
9.720142e-02
6.683385e-03
-2.270142e-02
-2.007684e-02
-8.926304e-03
-8.586224e-04
1.985842e-03
1.683915e-03
6.025778e-04
-8.421762e-05
-2.412009e-04
-1.401350e-04
-2.135686e-05
2.902431e-05
2.630325e-05
8.576124e-06
-2.574053e-06
-4.454369e-06
-2.150716e-06
-6.293497e-10
6.945124e-07
4.616813e-07
8.017533e-08
-9.777838e-08
-9.106955e-08
-2.810252e-08
1.147060e-08
1.688521e-08
7.355541e-09
-7.675827e-10
-2.981567e-09
-1.420233e-09
9.992559e-01
9.976652e-01
1.008470e+00
1.025753e+00
1.010027e+00
9.159829e-01
7.335341e-01
5.000000e-01
2.758038e-01
1.088602e-01
1.472451e-02
-1.996384e-02
-2.094718e-02
-1.084961e-02
-2.211758e-03
1.558410e-03
1.822061e-03
8.613520e-04
6.694251e-05
-2.158593e-04
-1.726959e-04
-5.368459e-05
1.667783e-05
2.835539e-05
1.417180e-05
6.657213e-07
-4.072168e-06
-2.973005e-06
-6.964264e-07
4.928163e-07
5.577191e-07
2.136318e-07
-3.937652e-08
-9.649798e-08
-5.151701e-08
-2.511753e-09
1.538809e-08
1.111819e-08
2.120154e-09
-1.858200e-09
1.000154e+00
9.978534e-01
9.993654e-01
1.012837e+00
1.025994e+00
1.001616e+00
9.027986e-01
7.241962e-01
5.000000e-01
2.838273e-01
1.192965e-01
2.244678e-02
-1.680921e-02
-2.125810e-02
-1.247723e-02
-3.569935e-03
9.930297e-04
1.846302e-03
1.083805e-03
2.347185e-04
-1.631846e-04
-1.904542e-04
-8.501881e-05
-4.130357e-07
2.652331e-05
1.863960e-05
4.484694e-06
-2.869331e-06
-3.414879e-06
-1.412918e-06
1.422333e-07
5.565605e-07
3.314863e-07
4.223656e-08
-8.038997e-08
-6.817345e-08
-1.937633e-08
9.607917e-09
1.289756e-08
4.552251e-09
1.000281e+00
9.993641e-01
9.974013e-01
1.001748e+00
1.016161e+00
1.024815e+00
9.933166e-01
8.911398e-01
7.161727e-01
5.000000e-01
2.908451e-01
1.287315e-01
2.983198e-02
-1.337794e-02
-2.110981e-02
-1.381484e-02
-4.886989e-03
3.293103e-04
1.766407e-03
1.259621e-03
4.067005e-04
-8.838354e-05
-1.922082e-04
-1.123036e-04
-2.042418e-05
2.096112e-05
2.138145e-05
8.383279e-06
-9.826890e-07
-3.386940e-06
-2.034474e-06
-3.076549e-07
4.508241e-07
4.103058e-07
1.332291e-07
-4.392952e-08
-7.389699e-08
-3.582822e-08
7.884651e-10
1.017912e-08
1.000118e+00
1.000206e+00
9.985755e-01
9.976840e-01
1.004287e+00
1.018527e+00
1.022701e+00
9.852755e-01
8.807035e-01
7.091549e-01
5.000000e-01
2.970692e-01
1.373318e-01
3.688233e-02
-9.767483e-03
-2.058472e-02
-1.487805e-02
-6.132720e-03
-3.996906e-04
1.595071e-03
1.383690e-03
5.729614e-04
2.823037e-06
-1.782283e-04
-1.333445e-04
-4.153896e-05
1.217746e-05
2.206116e-05
1.190845e-05
1.379618e-06
-2.869701e-06
-2.467723e-06
-7.960161e-07
2.497300e-07
4.341418e-07
2.187554e-07
8.199136e-09
-6.681656e-08
-4.817001e-08
-9.180422e-09
9.999908e-01
1.000298e+00
9.998417e-01
9.980211e-01
9.984738e-01
1.006721e+00
1.020077e+00
1.019964e+00
9.775532e-01
8.712685e-01
7.029308e-01
5.000000e-01
3.026513e-01
1.452257e-01
4.360989e-02
-6.046677e-03
-1.975019e-02
-1.568695e-02
-7.288137e-03
-1.167059e-03
1.345911e-03
1.454591e-03
7.259487e-04
1.048207e-04
-1.497800e-04
-1.467499e-04
-6.211528e-05
8.929112e-07
2.057498e-05
1.469268e-05
3.977870e-06
-1.901522e-06
-2.649165e-06
-1.260988e-06
-2.505563e-08
3.956285e-07
2.854390e-07
6.899702e-08
-4.818699e-08
-4.641493e-08
9.999610e-01
1.000120e+00
1.000304e+00
9.993804e-01
9.977582e-01
9.995793e-01
1.008926e+00
1.020947e+00
1.016809e+00
9.701680e-01
8.626682e-01
6.973487e-01
5.000000e-01
3.077038e-01
1.525142e-01
5.003124e-02
-2.264764e-03
-1.866131e-02
-1.626308e-02
-8.342078e-03
-1.951252e-03
1.032323e-03
1.473410e-03
8.602022e-04
2.124510e-04
-1.087418e-04
-1.518155e-04
-8.077271e-05
-1.207400e-05
1.700682e-05
1.647048e-05
6.571678e-06
-5.631732e-07
-2.546830e-06
-1.647186e-06
-3.441612e-07
2.955459e-07
3.236413e-07
1.273954e-07
-1.373615e-08
9.999796e-01
9.999862e-01
1.000233e+00
1.000171e+00
9.989361e-01
9.977702e-01
1.000859e+00
1.010850e+00
1.021258e+00
1.013378e+00
9.631177e-01
8.547743e-01
6.922962e-01
5.000000e-01
3.123121e-01
1.592780e-01
5.616456e-02
1.542669e-03
-1.736325e-02
-1.662787e-02
-9.288829e-03
-2.735259e-03
6.668682e-04
1.442879e-03
9.720185e-04
3.211846e-04
-5.731884e-05
-1.483915e-04
-9.642534e-05
-2.589130e-05
1.158001e-05
1.707954e-05
8.941693e-06
1.037730e-06
-2.157951e-06
-1.910408e-06
-6.752960e-07
1.425014e-07
3.277329e-07
1.548985e-07
9.999992e-01
9.999565e-01
1.000056e+00
1.000289e+00
9.999452e-01
9.985716e-01
9.980142e-01
1.002212e+00
1.012477e+00
1.021110e+00
1.009767e+00
9.563901e-01
8.474858e-01
6.876879e-01
5.000000e-01
3.165430e-01
1.655831e-01
6.202821e-02
5.349739e-03
-1.589314e-02
-1.680175e-02
-1.012644e-02
-3.505809e-03
2.609792e-04
1.366738e-03
1.059122e-03
4.271825e-04
2.164972e-06
-1.367531e-04
-1.082801e-04
-3.977184e-05
4.612085e-06
1.645236e-05
1.090316e-05
2.780568e-06
-1.504200e-06
-2.020160e-06
-9.882222e-07
-3.802087e-08
2.461123e-07
1.000006e+00
9.999776e-01
9.999653e-01
1.000134e+00
1.000277e+00
9.996751e-01
9.983161e-01
9.984416e-01
1.003570e+00
1.013815e+00
1.020585e+00
1.006047e+00
9.499688e-01
8.407220e-01
6.834570e-01
5.000000e-01
3.204493e-01
1.714836e-01
6.763995e-02
9.137558e-03
-1.428166e-02
-1.680375e-02
-1.085555e-02
-4.252684e-03
-1.751498e-04
1.249292e-03
1.120367e-03
5.272904e-04
6.740986e-05
-1.174854e-04
-1.158146e-04
-5.301029e-05
-3.524248e-06
1.460270e-05
1.231287e-05
4.542974e-06
-6.249323e-07
-1.965579e-06
-1.240599e-06
-2.215582e-07
1.000004e+00
9.999994e-01
9.999617e-01
9.999988e-01
1.000198e+00
1.000204e+00
9.993974e-01
9.981779e-01
9.990070e-01
1.004887e+00
1.014878e+00
1.019750e+00
1.002265e+00
9.438354e-01
8.344169e-01
6.795507e-01
5.000000e-01
3.240734e-01
1.770248e-01
7.301656e-02
1.289235e-02
-1.255426e-02
-1.665135e-02
-1.147852e-02
-4.968136e-03
-6.325587e-04
1.095094e-03
1.155486e-03
6.189956e-04
1.362344e-04
-9.138619e-05
-1.187451e-04
-6.500366e-05
-1.243282e-05
1.161002e-05
1.307059e-05
6.211445e-06
4.255425e-07
-1.770080e-06
-1.217255e-06
1.000001e+00
1.000006e+00
9.999866e-01
9.999587e-01
1.000046e+00
1.000236e+00
1.000084e+00
9.991386e-01
9.981537e-01
9.996707e-01
1.006133e+00
1.015687e+00
1.018661e+00
9.984573e-01
9.379718e-01
8.285164e-01
6.759266e-01
5.000000e-01
3.274504e-01
1.822449e-01
7.817369e-02
1.660412e-02
-1.073213e-02
-1.636044e-02
-1.199887e-02
-5.646403e-03
-1.103460e-03
9.087299e-04
1.164874e-03
7.003646e-04
2.066333e-04
-5.938594e-05
-1.169893e-04
-7.526006e-05
-2.171828e-05
7.603121e-06
1.311663e-05
7.702702e-06
1.495815e-06
-1.166634e-06
9.999992e-01
1.000004e+00
1.000003e+00
9.999740e-01
9.999696e-01
1.000096e+00
1.000241e+00
9.999331e-01
9.989162e-01
9.982336e-01
1.000400e+00
1.007288e+00
1.016263e+00
1.017363e+00
9.946503e-01
9.323600e-01
8.229752e-01
6.725496e-01
5.000000e-01
3.306091e-01
1.871762e-01
8.312585e-02
2.026567e-02
-8.832981e-03
-1.594543e-02
-1.242084e-02
-6.283316e-03
-1.581146e-03
6.946788e-04
1.149418e-03
7.699725e-04
2.768090e-04
-2.248568e-05
-1.106301e-04
-8.339893e-05
-3.100274e-05
2.736405e-06
1.246518e-05
8.876050e-06
2.305069e-06
9.999993e-01
1.000001e+00
1.000006e+00
9.999962e-01
9.999661e-01
9.999919e-01
1.000140e+00
1.000216e+00
9.997653e-01
9.987404e-01
9.984049e-01
1.001167e+00
1.008342e+00
1.016628e+00
1.015893e+00
9.908624e-01
9.269834e-01
8.177551e-01
6.693909e-01
5.000000e-01
3.335737e-01
1.918467e-01
8.788638e-02
2.387194e-02
-6.871689e-03
-1.541929e-02
-1.274906e-02
-6.875978e-03
-2.059884e-03
4.572170e-04
1.110356e-03
8.268332e-04
3.451849e-04
1.829150e-05
-9.988169e-05
-8.914158e-05
-3.995021e-05
-2.814497e-06
1.135556e-05
8.293479e-06
9.999998e-01
9.999991e-01
1.000003e+00
1.000006e+00
9.999873e-01
9.999649e-01
1.000021e+00
1.000173e+00
1.000163e+00
9.995933e-01
9.986163e-01
9.986541e-01
1.001951e+00
1.009289e+00
1.016802e+00
1.014282e+00
9.871076e-01
9.218263e-01
8.128238e-01
6.664263e-01
5.000000e-01
3.363646e-01
1.962802e-01
9.246756e-02
2.741945e-02
-4.860766e-03
-1.479371e-02
-1.298842e-02
-7.422501e-03
-2.534810e-03
2.003636e-04
1.049169e-03
8.703323e-04
4.104062e-04
6.193476e-05
-8.505649e-05
-9.229120e-05
-4.839363e-05
-8.235098e-06
7.975338e-06
1.000000e+00
9.999992e-01
9.999999e-01
1.000005e+00
1.000002e+00
9.999793e-01
9.999710e-01
1.000054e+00
1.000190e+00
1.000088e+00
9.994270e-01
9.985454e-01
9.989677e-01
1.002735e+00
1.010126e+00
1.016804e+00
1.012554e+00
9.833959e-01
9.168742e-01
8.081533e-01
6.636354e-01
5.000000e-01
3.389993e-01
2.004979e-01
9.688068e-02
3.090596e-02
-2.810781e-03
-1.407918e-02
-1.314383e-02
-7.921804e-03
-3.001828e-03
-7.214941e-05
9.674948e-04
9.001660e-04
4.713330e-04
1.074605e-04
-6.647215e-05
-9.298756e-05
-5.564400e-05
-1.228301e-05
1.000000e+00
9.999998e-01
9.999990e-01
1.000001e+00
1.000006e+00
9.999973e-01
9.999737e-01
9.999833e-01
1.000085e+00
1.000192e+00
9.999972e-01
9.992741e-01
9.985266e-01
9.993331e-01
1.003506e+00
1.010856e+00
1.016651e+00
1.010732e+00
9.797343e-01
9.121136e-01
8.037198e-01
6.610007e-01
5.000000e-01
3.414929e-01
2.045179e-01
1.011361e-01
3.433011e-02
-7.306817e-04
-1.328514e-02
-1.322016e-02
-8.373434e-03
-3.457510e-03
-3.568901e-04
8.670569e-04
9.162932e-04
5.269971e-04
1.540227e-04
-4.454785e-05
-9.247258e-05
-5.294842e-05
1.000000e+00
1.000000e+00
9.999994e-01
9.999993e-01
1.000003e+00
1.000005e+00
9.999914e-01
9.999716e-01
1.000000e+00
1.000112e+00
1.000178e+00
9.998952e-01
9.991398e-01
9.985571e-01
9.997390e-01
1.004253e+00
1.011479e+00
1.016360e+00
1.008833e+00
9.761281e-01
9.075324e-01
7.995021e-01
6.585071e-01
5.000000e-01
3.438583e-01
2.083564e-01
1.052433e-01
3.769130e-02
1.371941e-03
-1.242004e-02
-1.322219e-02
-8.777439e-03
-3.899017e-03
-6.507299e-04
7.496277e-04
9.188649e-04
5.765461e-04
2.016076e-04
-2.391410e-05
-7.569852e-05
1.000000e+00
1.000000e+00
9.999999e-01
9.999991e-01
1.000000e+00
1.000004e+00
1.000003e+00
9.999858e-01
9.999735e-01
1.000020e+00
1.000133e+00
1.000150e+00
9.997875e-01
9.990280e-01
9.986333e-01
1.000175e+00
1.004968e+00
1.011999e+00
1.015945e+00
1.006872e+00
9.725805e-01
9.031193e-01
7.954821e-01
6.561417e-01
5.000000e-01
3.461067e-01
2.120276e-01
1.092110e-01
4.098942e-02
3.490631e-03
-1.149151e-02
-1.315452e-02
-9.134250e-03
-4.324016e-03
-9.508357e-04
6.170457e-04
9.077677e-04
6.211701e-04
2.443781e-04
7.458958e-07
1.000000e+00
1.000000e+00
1.000000e+00
9.999997e-01
9.999991e-01
1.000001e+00
1.000004e+00
9.999993e-01
9.999814e-01
9.999790e-01
1.000042e+00
1.000147e+00
1.000109e+00
9.996788e-01
9.989409e-01
9.987507e-01
1.000633e+00
1.005646e+00
1.012421e+00
1.015419e+00
1.004861e+00
9.690940e-01
8.988639e-01
7.916436e-01
6.538933e-01
5.000000e-01
3.482482e-01
2.155443e-01
1.130474e-01
4.422480e-02
5.619893e-03
-1.050639e-02
-1.302157e-02
-9.444593e-03
-4.730659e-03
-1.254447e-03
4.703806e-04
8.847306e-04
6.625177e-04
2.459267e-04
1.000000e+00
1.000000e+00
1.000000e+00
1.000000e+00
9.999994e-01
9.999994e-01
1.000002e+00
1.000004e+00
9.999955e-01
9.999786e-01
9.999878e-01
1.000062e+00
1.000152e+00
1.000057e+00
9.995728e-01
9.988796e-01
9.989049e-01
1.001103e+00
1.006283e+00
1.012749e+00
1.014794e+00
1.002811e+00
9.656699e-01
8.947567e-01
7.879724e-01
6.517518e-01
5.000000e-01
3.502915e-01
2.189176e-01
1.167597e-01
4.739806e-02
7.755041e-03
-9.470848e-03
-1.282752e-02
-9.709509e-03
-5.117226e-03
-1.559339e-03
3.084347e-04
8.717897e-04
5.957564e-04
1.000000e+00
1.000000e+00
1.000000e+00
1.000000e+00
9.999999e-01
9.999993e-01
1.000000e+00
1.000003e+00
1.000003e+00
9.999916e-01
9.999779e-01
9.999991e-01
1.000081e+00
1.000148e+00
9.999978e-01
9.994727e-01
9.988445e-01
9.990913e-01
1.001581e+00
1.006876e+00
1.012988e+00
1.014079e+00
1.000731e+00
9.623087e-01
8.907890e-01
7.844557e-01
6.497085e-01
5.000000e-01
3.522442e-01
2.221578e-01
1.203549e-01
5.051007e-02
9.892067e-03
-8.390389e-03
-1.257641e-02
-9.930320e-03
-5.480516e-03
-1.874581e-03
1.787597e-04
7.234215e-04
1.000000e+00
1.000000e+00
1.000000e+00
1.000000e+00
1.000000e+00
9.999997e-01
9.999993e-01
1.000001e+00
1.000003e+00
1.000001e+00
9.999881e-01
9.999794e-01
1.000012e+00
1.000096e+00
1.000137e+00
9.999326e-01
9.993810e-01
9.988351e-01
9.993053e-01
1.002060e+00
1.007423e+00
1.013144e+00
1.013285e+00
9.986281e-01
9.590106e-01
8.869526e-01
7.810824e-01
6.477558e-01
5.000000e-01
3.541134e-01
2.252740e-01
1.238393e-01
5.356185e-02
1.202755e-02
-7.269840e-03
-1.227315e-02
-1.010307e-02
-5.838124e-03
-2.150215e-03
3.463948e-05
1.000000e+00
1.000000e+00
1.000000e+00
1.000000e+00
1.000000e+00
1.000000e+00
9.999995e-01
9.999995e-01
1.000001e+00
1.000003e+00
9.999986e-01
9.999853e-01
9.999830e-01
1.000026e+00
1.000108e+00
1.000117e+00
9.998638e-01
9.992996e-01
9.988506e-01
9.995428e-01
1.002535e+00
1.007922e+00
1.013220e+00
1.012420e+00
9.965094e-01
9.557752e-01
8.832403e-01
7.778422e-01
6.458866e-01
5.000000e-01
3.559051e-01
2.282745e-01
1.272187e-01
5.655446e-02
1.415914e-02
-6.115943e-03
-1.191459e-02
-1.024164e-02
-6.206915e-03
-2.069689e-03
1.000000e+00
1.000000e+00
1.000000e+00
1.000000e+00
1.000000e+00
1.000000e+00
9.999999e-01
9.999994e-01
9.999999e-01
1.000002e+00
1.000003e+00
9.999960e-01
9.999835e-01
9.999884e-01
1.000040e+00
1.000116e+00
1.000091e+00
9.997934e-01
9.992300e-01
9.988896e-01
9.997996e-01
1.003002e+00
1.008373e+00
1.013222e+00
1.011492e+00
9.943801e-01
9.526019e-01
8.796451e-01
7.747260e-01
6.440949e-01
5.000000e-01
3.576248e-01
2.311666e-01
1.304983e-01
5.949003e-02
1.628228e-02
-4.931344e-03
-1.147972e-02
-1.053711e-02
-5.615197e-03
1.000000e+00
1.000000e+00
1.000000e+00
1.000000e+00
1.000000e+00
1.000000e+00
1.000000e+00
9.999998e-01
9.999994e-01
1.000000e+00
1.000002e+00
1.000002e+00
9.999934e-01
9.999829e-01
9.999954e-01
1.000053e+00
1.000119e+00
1.000059e+00
9.997232e-01
9.991732e-01
9.989508e-01
1.000072e+00
1.003458e+00
1.008777e+00
1.013155e+00
1.010506e+00
9.922450e-01
9.494899e-01
8.761607e-01
7.717255e-01
6.423752e-01
5.000000e-01
3.592776e-01
2.339570e-01
1.336836e-01
6.237095e-02
1.837699e-02
-3.618881e-03
-1.142750e-02
-9.294534e-03
1.000000e+00
1.000000e+00
1.000000e+00
1.000000e+00
1.000000e+00
1.000000e+00
1.000000e+00
1.000000e+00
9.999997e-01
9.999995e-01
1.000001e+00
1.000003e+00
1.000001e+00
9.999911e-01
9.999835e-01
1.000004e+00
1.000065e+00
1.000117e+00
1.000022e+00
9.996548e-01
9.991297e-01
9.990325e-01
1.000357e+00
1.003899e+00
1.009134e+00
1.013022e+00
1.009471e+00
9.901079e-01
9.464381e-01
8.727813e-01
7.688334e-01
6.407224e-01
5.000000e-01
3.608681e-01
2.366509e-01
1.367905e-01
6.515035e-02
2.064548e-02
-2.869557e-03
-9.884481e-03
1.000000e+00
1.000000e+00
1.000000e+00
1.000000e+00
1.000000e+00
1.000000e+00
1.000000e+00
1.000000e+00
1.000000e+00
9.999996e-01
9.999998e-01
1.000001e+00
1.000003e+00
9.999990e-01
9.999891e-01
9.999854e-01
1.000012e+00
1.000075e+00
1.000111e+00
9.999817e-01
9.995896e-01
9.990998e-01
9.991329e-01
1.000651e+00
1.004324e+00
1.009445e+00
1.012828e+00
1.008390e+00
9.879725e-01
9.434455e-01
8.695017e-01
7.660430e-01
6.391319e-01
5.000000e-01
3.623925e-01
2.392730e-01
1.397321e-01
6.809362e-02
2.247880e-02
-2.097763e-03
1.000000e+00
1.000000e+00
1.000000e+00
1.000000e+00
1.000000e+00
1.000000e+00
1.000000e+00
1.000000e+00
1.000000e+00
9.999999e-01
9.999996e-01
1.000000e+00
1.000002e+00
1.000002e+00
9.999972e-01
9.999877e-01
9.999884e-01
1.000022e+00
1.000083e+00
1.000100e+00
9.999381e-01
9.995287e-01
9.990837e-01
9.992504e-01
1.000951e+00
1.004731e+00
1.009710e+00
1.012576e+00
1.007270e+00
9.858409e-01
9.405100e-01
8.663164e-01
7.633491e-01
6.376075e-01
5.000000e-01
3.639027e-01
2.417421e-01
1.426660e-01
7.131041e-02
2.025562e-02
1.000000e+00
1.000000e+00
1.000000e+00
1.000000e+00
1.000000e+00
1.000000e+00
1.000000e+00
1.000000e+00
1.000000e+00
1.000000e+00
9.999998e-01
9.999996e-01
1.000000e+00
1.000002e+00
1.000002e+00
9.999955e-01
9.999869e-01
9.999924e-01
1.000031e+00
1.000089e+00
1.000085e+00
9.998925e-01
9.994730e-01
9.990811e-01
9.993830e-01
1.001254e+00
1.005117e+00
1.009930e+00
1.012273e+00
1.006116e+00
9.837177e-01
9.376291e-01
8.632095e-01
7.607270e-01
6.360973e-01
5.000000e-01
3.653838e-01
2.439286e-01
1.479712e-01
6.421979e-02
1.000000e+00
1.000000e+00
1.000000e+00
1.000000e+00
1.000000e+00
1.000000e+00
1.000000e+00
1.000000e+00
1.000000e+00
1.000000e+00
1.000000e+00
9.999997e-01
9.999997e-01
1.000001e+00
1.000002e+00
1.000001e+00
9.999938e-01
9.999869e-01
9.999973e-01
1.000040e+00
1.000092e+00
1.000066e+00
9.998460e-01
9.994235e-01
9.990922e-01
9.995296e-01
1.001559e+00
1.005481e+00
1.010103e+00
1.011915e+00
1.004931e+00
9.816230e-01
9.348496e-01
8.602679e-01
7.582579e-01
6.346162e-01
5.000000e-01
3.650999e-01
2.501298e-01
1.305822e-01
1.000000e+00
1.000000e+00
1.000000e+00
1.000000e+00
1.000000e+00
1.000000e+00
1.000000e+00
1.000000e+00
1.000000e+00
1.000000e+00
1.000000e+00
9.999999e-01
9.999997e-01
9.999999e-01
1.000001e+00
1.000002e+00
9.999996e-01
9.999923e-01
9.999875e-01
1.000003e+00
1.000048e+00
1.000093e+00
1.000045e+00
9.997984e-01
9.993788e-01