# vtk DataFile Version 3.0
QUICK scheme_Pe = 1000,Grid 81x81,001448.vtk
ASCII
DATASET STRUCTURED_GRID
DIMENSIONS 81 81 1
POINTS 6561 double
0.000000e+00 0.000000e+00 0.0
1.250000e-02 0.000000e+00 0.0
2.500000e-02 0.000000e+00 0.0
3.750000e-02 0.000000e+00 0.0
5.000000e-02 0.000000e+00 0.0
6.250000e-02 0.000000e+00 0.0
7.500000e-02 0.000000e+00 0.0
8.750000e-02 0.000000e+00 0.0
1.000000e-01 0.000000e+00 0.0
1.125000e-01 0.000000e+00 0.0
1.250000e-01 0.000000e+00 0.0
1.375000e-01 0.000000e+00 0.0
1.500000e-01 0.000000e+00 0.0
1.625000e-01 0.000000e+00 0.0
1.750000e-01 0.000000e+00 0.0
1.875000e-01 0.000000e+00 0.0
2.000000e-01 0.000000e+00 0.0
2.125000e-01 0.000000e+00 0.0
2.250000e-01 0.000000e+00 0.0
2.375000e-01 0.000000e+00 0.0
2.500000e-01 0.000000e+00 0.0
2.625000e-01 0.000000e+00 0.0
2.750000e-01 0.000000e+00 0.0
2.875000e-01 0.000000e+00 0.0
3.000000e-01 0.000000e+00 0.0
3.125000e-01 0.000000e+00 0.0
3.250000e-01 0.000000e+00 0.0
3.375000e-01 0.000000e+00 0.0
3.500000e-01 0.000000e+00 0.0
3.625000e-01 0.000000e+00 0.0
3.750000e-01 0.000000e+00 0.0
3.875000e-01 0.000000e+00 0.0
4.000000e-01 0.000000e+00 0.0
4.125000e-01 0.000000e+00 0.0
4.250000e-01 0.000000e+00 0.0
4.375000e-01 0.000000e+00 0.0
4.500000e-01 0.000000e+00 0.0
4.625000e-01 0.000000e+00 0.0
4.750000e-01 0.000000e+00 0.0
4.875000e-01 0.000000e+00 0.0
5.000000e-01 0.000000e+00 0.0
5.125000e-01 0.000000e+00 0.0
5.250000e-01 0.000000e+00 0.0
5.375000e-01 0.000000e+00 0.0
5.500000e-01 0.000000e+00 0.0
5.625000e-01 0.000000e+00 0.0
5.750000e-01 0.000000e+00 0.0
5.875000e-01 0.000000e+00 0.0
6.000000e-01 0.000000e+00 0.0
6.125000e-01 0.000000e+00 0.0
6.250000e-01 0.000000e+00 0.0
6.375000e-01 0.000000e+00 0.0
6.500000e-01 0.000000e+00 0.0
6.625000e-01 0.000000e+00 0.0
6.750000e-01 0.000000e+00 0.0
6.875000e-01 0.000000e+00 0.0
7.000000e-01 0.000000e+00 0.0
7.125000e-01 0.000000e+00 0.0
7.250000e-01 0.000000e+00 0.0
7.375000e-01 0.000000e+00 0.0
7.500000e-01 0.000000e+00 0.0
7.625000e-01 0.000000e+00 0.0
7.750000e-01 0.000000e+00 0.0
7.875000e-01 0.000000e+00 0.0
8.000000e-01 0.000000e+00 0.0
8.125000e-01 0.000000e+00 0.0
8.250000e-01 0.000000e+00 0.0
8.375000e-01 0.000000e+00 0.0
8.500000e-01 0.000000e+00 0.0
8.625000e-01 0.000000e+00 0.0
8.750000e-01 0.000000e+00 0.0
8.875000e-01 0.000000e+00 0.0
9.000000e-01 0.000000e+00 0.0
9.125000e-01 0.000000e+00 0.0
9.250000e-01 0.000000e+00 0.0
9.375000e-01 0.000000e+00 0.0
9.500000e-01 0.000000e+00 0.0
9.625000e-01 0.000000e+00 0.0
9.750000e-01 0.000000e+00 0.0
9.875000e-01 0.000000e+00 0.0
1.000000e+00 0.000000e+00 0.0
0.000000e+00 1.250000e-02 0.0
1.250000e-02 1.250000e-02 0.0
2.500000e-02 1.250000e-02 0.0
3.750000e-02 1.250000e-02 0.0
5.000000e-02 1.250000e-02 0.0
6.250000e-02 1.250000e-02 0.0
7.500000e-02 1.250000e-02 0.0
8.750000e-02 1.250000e-02 0.0
1.000000e-01 1.250000e-02 0.0
1.125000e-01 1.250000e-02 0.0
1.250000e-01 1.250000e-02 0.0
1.375000e-01 1.250000e-02 0.0
1.500000e-01 1.250000e-02 0.0
1.625000e-01 1.250000e-02 0.0
1.750000e-01 1.250000e-02 0.0
1.875000e-01 1.250000e-02 0.0
2.000000e-01 1.250000e-02 0.0
2.125000e-01 1.250000e-02 0.0
2.250000e-01 1.250000e-02 0.0
2.375000e-01 1.250000e-02 0.0
2.500000e-01 1.250000e-02 0.0
2.625000e-01 1.250000e-02 0.0
2.750000e-01 1.250000e-02 0.0
2.875000e-01 1.250000e-02 0.0
3.000000e-01 1.250000e-02 0.0
3.125000e-01 1.250000e-02 0.0
3.250000e-01 1.250000e-02 0.0
3.375000e-01 1.250000e-02 0.0
3.500000e-01 1.250000e-02 0.0
3.625000e-01 1.250000e-02 0.0
3.750000e-01 1.250000e-02 0.0
3.875000e-01 1.250000e-02 0.0
4.000000e-01 1.250000e-02 0.0
4.125000e-01 1.250000e-02 0.0
4.250000e-01 1.250000e-02 0.0
4.375000e-01 1.250000e-02 0.0
4.500000e-01 1.250000e-02 0.0
4.625000e-01 1.250000e-02 0.0
4.750000e-01 1.250000e-02 0.0
4.875000e-01 1.250000e-02 0.0
5.000000e-01 1.250000e-02 0.0
5.125000e-01 1.250000e-02 0.0
5.250000e-01 1.250000e-02 0.0
5.375000e-01 1.250000e-02 0.0
5.500000e-01 1.250000e-02 0.0
5.625000e-01 1.250000e-02 0.0
5.750000e-01 1.250000e-02 0.0
5.875000e-01 1.250000e-02 0.0
6.000000e-01 1.250000e-02 0.0
6.125000e-01 1.250000e-02 0.0
6.250000e-01 1.250000e-02 0.0
6.375000e-01 1.250000e-02 0.0
6.500000e-01 1.250000e-02 0.0
6.625000e-01 1.250000e-02 0.0
6.750000e-01 1.250000e-02 0.0
6.875000e-01 1.250000e-02 0.0
7.000000e-01 1.250000e-02 0.0
7.125000e-01 1.250000e-02 0.0
7.250000e-01 1.250000e-02 0.0
7.375000e-01 1.250000e-02 0.0
7.500000e-01 1.250000e-02 0.0
7.625000e-01 1.250000e-02 0.0
7.750000e-01 1.250000e-02 0.0
7.875000e-01 1.250000e-02 0.0
8.000000e-01 1.250000e-02 0.0
8.125000e-01 1.250000e-02 0.0
8.250000e-01 1.250000e-02 0.0
8.375000e-01 1.250000e-02 0.0
8.500000e-01 1.250000e-02 0.0
8.625000e-01 1.250000e-02 0.0
8.750000e-01 1.250000e-02 0.0
8.875000e-01 1.250000e-02 0.0
9.000000e-01 1.250000e-02 0.0
9.125000e-01 1.250000e-02 0.0
9.250000e-01 1.250000e-02 0.0
9.375000e-01 1.250000e-02 0.0
9.500000e-01 1.250000e-02 0.0
9.625000e-01 1.250000e-02 0.0
9.750000e-01 1.250000e-02 0.0
9.875000e-01 1.250000e-02 0.0
1.000000e+00 1.250000e-02 0.0
0.000000e+00 2.500000e-02 0.0
1.250000e-02 2.500000e-02 0.0
2.500000e-02 2.500000e-02 0.0
3.750000e-02 2.500000e-02 0.0
5.000000e-02 2.500000e-02 0.0
6.250000e-02 2.500000e-02 0.0
7.500000e-02 2.500000e-02 0.0
8.750000e-02 2.500000e-02 0.0
1.000000e-01 2.500000e-02 0.0
1.125000e-01 2.500000e-02 0.0
1.250000e-01 2.500000e-02 0.0
1.375000e-01 2.500000e-02 0.0
1.500000e-01 2.500000e-02 0.0
1.625000e-01 2.500000e-02 0.0
1.750000e-01 2.500000e-02 0.0
1.875000e-01 2.500000e-02 0.0
2.000000e-01 2.500000e-02 0.0
2.125000e-01 2.500000e-02 0.0
2.250000e-01 2.500000e-02 0.0
2.375000e-01 2.500000e-02 0.0
2.500000e-01 2.500000e-02 0.0
2.625000e-01 2.500000e-02 0.0
2.750000e-01 2.500000e-02 0.0
2.875000e-01 2.500000e-02 0.0
3.000000e-01 2.500000e-02 0.0
3.125000e-01 2.500000e-02 0.0
3.250000e-01 2.500000e-02 0.0
3.375000e-01 2.500000e-02 0.0
3.500000e-01 2.500000e-02 0.0
3.625000e-01 2.500000e-02 0.0
3.750000e-01 2.500000e-02 0.0
3.875000e-01 2.500000e-02 0.0
4.000000e-01 2.500000e-02 0.0
4.125000e-01 2.500000e-02 0.0
4.250000e-01 2.500000e-02 0.0
4.375000e-01 2.500000e-02 0.0
4.500000e-01 2.500000e-02 0.0
4.625000e-01 2.500000e-02 0.0
4.750000e-01 2.500000e-02 0.0
4.875000e-01 2.500000e-02 0.0
5.000000e-01 2.500000e-02 0.0
5.125000e-01 2.500000e-02 0.0
5.250000e-01 2.500000e-02 0.0
5.375000e-01 2.500000e-02 0.0
5.500000e-01 2.500000e-02 0.0
5.625000e-01 2.500000e-02 0.0
5.750000e-01 2.500000e-02 0.0
5.875000e-01 2.500000e-02 0.0
6.000000e-01 2.500000e-02 0.0
6.125000e-01 2.500000e-02 0.0
6.250000e-01 2.500000e-02 0.0
6.375000e-01 2.500000e-02 0.0
6.500000e-01 2.500000e-02 0.0
6.625000e-01 2.500000e-02 0.0
6.750000e-01 2.500000e-02 0.0
6.875000e-01 2.500000e-02 0.0
7.000000e-01 2.500000e-02 0.0
7.125000e-01 2.500000e-02 0.0
7.250000e-01 2.500000e-02 0.0
7.375000e-01 2.500000e-02 0.0
7.500000e-01 2.500000e-02 0.0
7.625000e-01 2.500000e-02 0.0
7.750000e-01 2.500000e-02 0.0
7.875000e-01 2.500000e-02 0.0
8.000000e-01 2.500000e-02 0.0
8.125000e-01 2.500000e-02 0.0
8.250000e-01 2.500000e-02 0.0
8.375000e-01 2.500000e-02 0.0
8.500000e-01 2.500000e-02 0.0
8.625000e-01 2.500000e-02 0.0
8.750000e-01 2.500000e-02 0.0
8.875000e-01 2.500000e-02 0.0
9.000000e-01 2.500000e-02 0.0
9.125000e-01 2.500000e-02 0.0
9.250000e-01 2.500000e-02 0.0
9.375000e-01 2.500000e-02 0.0
9.500000e-01 2.500000e-02 0.0
9.625000e-01 2.500000e-02 0.0
9.750000e-01 2.500000e-02 0.0
9.875000e-01 2.500000e-02 0.0
1.000000e+00 2.500000e-02 0.0
0.000000e+00 3.750000e-02 0.0
1.250000e-02 3.750000e-02 0.0
2.500000e-02 3.750000e-02 0.0
3.750000e-02 3.750000e-02 0.0
5.000000e-02 3.750000e-02 0.0
6.250000e-02 3.750000e-02 0.0
7.500000e-02 3.750000e-02 0.0
8.750000e-02 3.750000e-02 0.0
1.000000e-01 3.750000e-02 0.0
1.125000e-01 3.750000e-02 0.0
1.250000e-01 3.750000e-02 0.0
1.375000e-01 3.750000e-02 0.0
1.500000e-01 3.750000e-02 0.0
1.625000e-01 3.750000e-02 0.0
1.750000e-01 3.750000e-02 0.0
1.875000e-01 3.750000e-02 0.0
2.000000e-01 3.750000e-02 0.0
2.125000e-01 3.750000e-02 0.0
2.250000e-01 3.750000e-02 0.0
2.375000e-01 3.750000e-02 0.0
2.500000e-01 3.750000e-02 0.0
2.625000e-01 3.750000e-02 0.0
2.750000e-01 3.750000e-02 0.0
2.875000e-01 3.750000e-02 0.0
3.000000e-01 3.750000e-02 0.0
3.125000e-01 3.750000e-02 0.0
3.250000e-01 3.750000e-02 0.0
3.375000e-01 3.750000e-02 0.0
3.500000e-01 3.750000e-02 0.0
3.625000e-01 3.750000e-02 0.0
3.750000e-01 3.750000e-02 0.0
3.875000e-01 3.750000e-02 0.0
4.000000e-01 3.750000e-02 0.0
4.125000e-01 3.750000e-02 0.0
4.250000e-01 3.750000e-02 0.0
4.375000e-01 3.750000e-02 0.0
4.500000e-01 3.750000e-02 0.0
4.625000e-01 3.750000e-02 0.0
4.750000e-01 3.750000e-02 0.0
4.875000e-01 3.750000e-02 0.0
5.000000e-01 3.750000e-02 0.0
5.125000e-01 3.750000e-02 0.0
5.250000e-01 3.750000e-02 0.0
5.375000e-01 3.750000e-02 0.0
5.500000e-01 3.750000e-02 0.0
5.625000e-01 3.750000e-02 0.0
5.750000e-01 3.750000e-02 0.0
5.875000e-01 3.750000e-02 0.0
6.000000e-01 3.750000e-02 0.0
6.125000e-01 3.750000e-02 0.0
6.250000e-01 3.750000e-02 0.0
6.375000e-01 3.750000e-02 0.0
6.500000e-01 3.750000e-02 0.0
6.625000e-01 3.750000e-02 0.0
6.750000e-01 3.750000e-02 0.0
6.875000e-01 3.750000e-02 0.0
7.000000e-01 3.750000e-02 0.0
7.125000e-01 3.750000e-02 0.0
7.250000e-01 3.750000e-02 0.0
7.375000e-01 3.750000e-02 0.0
7.500000e-01 3.750000e-02 0.0
7.625000e-01 3.750000e-02 0.0
7.750000e-01 3.750000e-02 0.0
7.875000e-01 3.750000e-02 0.0
8.000000e-01 3.750000e-02 0.0
8.125000e-01 3.750000e-02 0.0
8.250000e-01 3.750000e-02 0.0
8.375000e-01 3.750000e-02 0.0
8.500000e-01 3.750000e-02 0.0
8.625000e-01 3.750000e-02 0.0
8.750000e-01 3.750000e-02 0.0
8.875000e-01 3.750000e-02 0.0
9.000000e-01 3.750000e-02 0.0
9.125000e-01 3.750000e-02 0.0
9.250000e-01 3.750000e-02 0.0
9.375000e-01 3.750000e-02 0.0
9.500000e-01 3.750000e-02 0.0
9.625000e-01 3.750000e-02 0.0
9.750000e-01 3.750000e-02 0.0
9.875000e-01 3.750000e-02 0.0
1.000000e+00 3.750000e-02 0.0
0.000000e+00 5.000000e-02 0.0
1.250000e-02 5.000000e-02 0.0
2.500000e-02 5.000000e-02 0.0
3.750000e-02 5.000000e-02 0.0
[...]
CELL_DATA 6400
SCALARS Temperature double 1
LOOKUP_TABLE default
5.000000e-01
8.905596e-02
-1.505876e-02
-1.891884e-02
-6.826137e-03
-8.958099e-05
1.313299e-03
7.601971e-04
1.472834e-04
-8.957322e-05
-8.958214e-05
-3.291213e-05
2.115882e-06
9.777771e-06
5.646354e-06
1.021704e-06
-8.541315e-07
-8.291694e-07
-3.061427e-07
2.832154e-08
1.035977e-07
6.035938e-08
1.076795e-08
-9.940631e-09
-9.679586e-09
-3.615910e-09
3.621933e-10
1.286106e-09
7.592157e-10
1.372251e-10
-1.289233e-10
-1.272646e-10
-4.827964e-11
4.740768e-12
1.746738e-11
1.046856e-11
1.943017e-12
-1.788100e-12
-1.798423e-12
-6.942341e-13
6.333977e-14
2.513356e-13
1.531016e-13
2.937493e-14
-2.594987e-14
-2.667323e-14
-1.048856e-14
8.552105e-16
3.764539e-15
2.332489e-15
4.640681e-16
-3.890196e-16
-4.095321e-16
-1.641376e-16
1.153677e-17
5.807121e-17
3.661621e-17
7.563649e-18
-5.974789e-18
-6.453120e-18
-2.636941e-18
1.533770e-19
9.161643e-19
5.881143e-19
1.261500e-19
-9.348814e-20
-1.037533e-19
-4.323147e-20
1.970356e-21
1.471174e-20
9.617676e-21
2.141295e-21
-1.484361e-21
-1.695172e-21
-7.202632e-22
2.360733e-23
2.395972e-22
1.598227e-22
3.568686e-23
-2.086585e-23
9.109440e-01
5.000000e-01
1.795812e-01
2.615825e-02
-1.659523e-02
-1.489397e-02
-5.503336e-03
-1.097483e-04
1.170279e-03
7.452664e-04
1.815822e-04
-7.007954e-05
-9.019987e-05
-3.954004e-05
-1.846103e-06
9.275269e-06
6.521541e-06
1.745875e-06
-6.383385e-07
-9.017353e-07
-4.183977e-07
-2.499630e-08
1.012165e-07
7.456267e-08
2.101259e-08
-7.261088e-09
-1.091616e-08
-5.248000e-09
-3.736623e-10
1.274233e-09
9.708962e-10
2.845904e-10
-9.206569e-11
-1.463530e-10
-7.236274e-11
-5.957856e-12
1.740870e-11
1.365393e-11
4.141305e-12
-1.244680e-12
-2.091001e-12
-1.059661e-12
-9.889891e-14
2.507852e-13
2.020381e-13
6.322358e-14
-1.754360e-14
-3.120019e-14
-1.617552e-14
-1.685675e-15
3.749181e-15
3.099384e-15
9.987331e-16
-2.544132e-16
-4.804292e-16
-2.545236e-16
-2.926143e-17
5.760042e-17
4.884180e-17
1.618361e-17
-3.763300e-18
-7.576202e-18
-4.098550e-18
-5.147049e-19
9.035938e-19
7.858358e-19
2.674449e-19
-5.643279e-20
-1.217219e-19
-6.720665e-20
-9.143829e-21
1.440903e-20
1.285423e-20
4.489101e-21
-8.538095e-22
-1.985045e-21
-1.118322e-21
-1.639682e-22
2.371295e-22
1.853802e-22
1.015059e+00
8.204188e-01
5.000000e-01
2.219456e-01
5.868429e-02
-5.609962e-03
-1.630518e-02
-9.493994e-03
-2.474165e-03
6.223525e-04
1.000259e-03
4.959378e-04
7.064270e-05
-8.124912e-05
-7.169007e-05
-2.564568e-05
2.281696e-06
8.452150e-06
4.984806e-06
9.865214e-07
-7.268473e-07
-7.619580e-07
-3.058983e-07
1.040555e-08
9.410131e-08
6.044453e-08
1.375832e-08
-8.144775e-09
-9.503212e-09
-4.076232e-09
5.255327e-12
1.197046e-09
8.134381e-10
2.019260e-10
-1.024014e-10
-1.297183e-10
-5.830904e-11
-1.330526e-12
1.646477e-11
1.168503e-11
3.091678e-12
-1.379206e-12
-1.875971e-12
-8.752792e-13
-3.727243e-14
2.383638e-13
1.754977e-13
4.888992e-14
-1.943205e-14
-2.824015e-14
-1.360213e-14
-8.133243e-16
3.577547e-15
2.722194e-15
7.925328e-16
-2.824372e-16
-4.378076e-16
-2.169534e-16
-1.634434e-17
5.514646e-17
4.326758e-17
1.309950e-17
-4.197007e-18
-6.941533e-18
-3.531015e-18
-3.167376e-19
8.676340e-19
7.009542e-19
2.199065e-19
-6.336631e-20
-1.120230e-19
-5.840198e-20
-6.026502e-21
1.387257e-20
1.153082e-20
3.738553e-21
-9.669517e-22
-1.836495e-21
-9.717745e-22
-9.703337e-23
1.018919e+00
9.738418e-01
7.780544e-01
5.000000e-01
2.485614e-01
8.440828e-02
7.235176e-03
-1.417487e-02
-1.174796e-02
-4.793713e-03
-4.350942e-04
8.920283e-04
7.137751e-04
2.527923e-04
-1.565498e-05
-7.732180e-05
-4.789941e-05
-1.138519e-05
5.391453e-06
6.773275e-06
3.081396e-06
1.920824e-07
-7.364631e-07
-5.536679e-07
-1.663321e-07
4.525205e-08
7.855245e-08
4.043857e-08
4.817378e-09
-8.466825e-09
-7.187561e-09
-2.435809e-09
4.430078e-10
1.020307e-09
5.684954e-10
8.802506e-11
-1.081872e-10
-1.004772e-10
-3.683615e-11
4.655086e-12
1.422054e-11
8.398954e-12
1.519690e-12
-1.477218e-12
-1.476749e-12
-5.738769e-13
4.965541e-14
2.078711e-13
1.286699e-13
2.596393e-14
-2.109719e-14
-2.249693e-14
-9.161017e-15
5.058674e-16
3.144267e-15
2.025853e-15
4.445409e-16
-3.111084e-16
-3.520459e-16
-1.491469e-16
4.348836e-18
4.879472e-17
3.258132e-17
7.655771e-18
-4.697460e-18
-5.624785e-18
-2.467384e-18
1.627077e-20
7.724049e-19
5.329452e-19
1.327306e-19
-7.220442e-20
-9.136859e-20
-4.136041e-20
-5.579305e-22
1.242100e-20
8.838718e-21
2.319988e-21
-1.161231e-21
-1.309781e-21
1.006826e+00
1.016595e+00
9.413157e-01
7.514386e-01
5.000000e-01
2.675562e-01
1.054107e-01
2.012973e-02
-1.005439e-02
-1.250383e-02
-6.693386e-03
-1.691370e-03
4.972864e-04
7.851923e-04
4.187195e-04
8.360704e-05
-5.393429e-05
-5.977448e-05
-2.648176e-05
-1.795201e-06
6.098130e-06
4.689006e-06
1.507887e-06
-2.888911e-07
-6.265383e-07
-3.477939e-07
-5.921887e-08
5.948618e-08
5.801369e-08
2.262212e-08
-1.339249e-09
-7.534014e-09
-4.794644e-09
-1.087296e-09
6.644463e-10
7.795488e-10
3.408199e-10
3.653955e-12
-9.893113e-11
-6.942400e-11
-1.840546e-11
8.063907e-12
1.109815e-11
5.255793e-12
2.978333e-13
-1.377995e-12
-1.044471e-12
-3.072348e-13
1.031804e-13
1.646761e-13
8.292789e-14
7.514450e-15
-2.000897e-14
-1.618303e-14
-5.141830e-15
1.365516e-15
2.519749e-15
1.334420e-15
1.569400e-16
-2.995565e-16
-2.565636e-16
-8.667218e-17
1.843750e-17
3.947482e-17
2.182753e-17
3.059792e-18
-4.589919e-18
-4.142567e-18
-1.472897e-18
2.511590e-19
6.300056e-19
3.619559e-19
5.782064e-20
-7.160698e-20
-6.788699e-20
-2.522787e-20
3.411274e-21
1.022091e-20
6.040569e-21
9.255585e-22
1.000090e+00
1.014894e+00
1.005610e+00
9.155917e-01
7.324438e-01
5.000000e-01
2.821567e-01
1.230497e-01
3.248932e-02
-4.814573e-03
-1.208146e-02
-8.055062e-03
-2.947419e-03
-8.737470e-05
7.085245e-04
5.340425e-04
1.926061e-04
-7.175199e-06
-5.746455e-05
-3.847861e-05
-1.111479e-05
2.931303e-06
5.160791e-06
2.772188e-06
4.678250e-07
-4.642832e-07
-4.566518e-07
-1.837529e-07
4.244000e-09
5.620482e-08
3.777346e-08
9.807584e-09
-4.254787e-09
-5.832495e-09
-2.794063e-09
-2.166849e-10
6.767046e-10
5.339831e-10
1.694468e-10
-4.148375e-11
-7.940468e-11
-4.273950e-11
-5.891419e-12
8.738494e-12
7.844760e-12
2.820957e-12
-4.051288e-13
-1.133937e-12
-6.661836e-13
-1.200000e-13
1.185457e-13
1.189522e-13
4.677268e-14
-3.635110e-15
-1.678317e-14
-1.058306e-14
-2.249921e-15
1.666289e-15
1.849779e-15
7.795201e-16
-2.324752e-17
-2.552947e-16
-1.709657e-16
-4.086913e-17
2.403720e-17
2.935224e-17
1.309195e-17
9.872593e-20
-3.967274e-18
-2.801708e-18
-7.327238e-19
3.534089e-19
4.734558e-19
2.216512e-19
8.457216e-21
-6.270838e-20
-4.647501e-20
-1.309131e-20
5.459708e-21
6.742464e-21
9.986867e-01
1.005503e+00
1.016305e+00
9.927648e-01
8.945893e-01
7.178433e-01
5.000000e-01
2.939249e-01
1.381904e-01
4.413478e-02
1.039076e-03
-1.076044e-02
-8.871870e-03
-4.085309e-03
-7.757468e-04
5.045033e-04
5.828927e-04
2.920391e-04
5.405484e-05
-4.098934e-05
-4.439784e-05
-2.037200e-05
-2.098331e-06
4.241393e-06
3.597215e-06
1.335407e-06
-8.615979e-08
-4.438949e-07
-2.871971e-07
-7.321258e-08
3.204654e-08
4.379182e-08
2.130003e-08
2.067263e-09
-4.817392e-09
-3.978228e-09
-1.356843e-09
2.306404e-10
5.641379e-10
3.254373e-10
5.904592e-11
-5.601901e-11
-5.679966e-11
-2.286212e-11
1.100469e-12
7.648379e-12
5.009295e-12
1.189578e-12
-6.833844e-13
-8.373359e-13
-3.777240e-13
-9.753281e-15
1.079434e-13
7.837783e-14
2.189288e-14
-8.593573e-15
-1.268567e-14
-6.241177e-15
-4.840411e-16
1.571495e-15
1.246930e-15
3.901274e-16
-1.097480e-16
-1.965422e-16
-1.037476e-16
-1.213444e-17
2.343823e-17
2.013663e-17
6.868169e-18
-1.402943e-18
-3.101352e-18
-1.737835e-18
-2.584715e-19
3.562643e-19
3.294315e-19
1.204512e-19
-1.762889e-20
-4.975262e-20
-2.918594e-20
-4.425125e-21
9.992398e-01
1.000110e+00
1.009494e+00
1.014175e+00
9.798703e-01
8.769503e-01
7.060751e-01
5.000000e-01
3.037250e-01
1.514087e-01
5.503835e-02
7.203996e-03
-8.762654e-03
-9.183210e-03
-5.040560e-03
-1.499616e-03
2.020439e-04
5.620037e-04
3.685440e-04
1.205111e-04
-1.275641e-05
-4.286763e-05
-2.769986e-05
-8.045167e-06
2.016766e-06
3.734853e-06
2.102040e-06
4.324148e-07
-2.964398e-07
-3.357789e-07
-1.524939e-07
-1.042965e-08
3.712038e-08
2.929690e-08
9.791642e-09
-1.716686e-09
-4.100341e-09
-2.380390e-09
-4.595816e-10
3.842247e-10
4.070883e-10
1.714618e-10
-1.262731e-12
-5.225484e-11
-3.631399e-11
-9.784850e-12
4.065875e-12
5.803641e-12
2.844127e-12
2.402174e-13
-6.926970e-13
-5.586666e-13
-1.815278e-13
4.248727e-14
8.502520e-14
4.667916e-14
6.805744e-15
-9.475452e-15
-8.723260e-15
-3.218882e-15
4.130497e-16
1.275756e-15
7.679278e-16
1.470038e-16
-1.327548e-16
-1.382803e-16
-5.614441e-17
3.186850e-18
1.952879e-17
1.271540e-17
2.895846e-18
-1.892983e-18
-2.222285e-18
-9.741298e-19
3.657980e-21
3.039280e-19
2.121419e-19
5.482486e-20
-2.819275e-20
-3.149091e-20
9.998527e-01
9.988297e-01
1.002474e+00
1.011748e+00
1.010054e+00
9.675107e-01
8.618096e-01
6.962750e-01
5.000000e-01
3.120823e-01
1.631050e-01
6.523018e-02
1.349458e-02
-6.258927e-03
-9.044921e-03
-5.782378e-03
-2.208321e-03
-1.690381e-04
4.758325e-04
4.142046e-04
1.840841e-04
2.363356e-05
-3.383348e-05
-3.178820e-05
-1.391021e-05
-1.191143e-06
3.094042e-06
2.591211e-06
9.886196e-07
-3.330982e-08
-3.101214e-07
-2.130675e-07
-6.232744e-08
1.769747e-08
3.090340e-08
1.682454e-08
2.867175e-09
-2.932651e-09
-2.931367e-09
-1.208763e-09
1.535936e-11
3.711659e-10
2.580305e-10
7.139335e-11
-2.689044e-11
-4.042734e-11
-2.045195e-11
-2.254602e-12
4.578995e-12
3.909639e-12
1.370643e-12
-2.183464e-13
-5.694887e-13
-3.347943e-13
-6.262851e-14
5.779590e-14
5.976266e-14
2.443416e-14
-1.050162e-15
-8.205388e-15
-5.451567e-15
-1.323023e-15
7.397585e-16
9.260371e-16
4.242522e-16
1.392799e-17
-1.206166e-16
-8.910394e-17
-2.552659e-17
9.499263e-18
1.454843e-17
7.299542e-18
6.420718e-19
-1.803028e-18
-1.466208e-18
-4.734094e-19
1.206867e-19
2.318013e-19
1.245461e-19
1.403107e-20
1.000090e+00
9.992547e-01
9.993776e-01
1.004794e+00
1.012504e+00
1.004815e+00
9.558652e-01
8.485913e-01
6.879177e-01
5.000000e-01
3.193394e-01
1.735684e-01
7.476110e-02
1.979509e-02
-3.379648e-03
-8.515696e-03
-6.300665e-03
-2.865900e-03
-5.814229e-04
3.330774e-04
4.254637e-04
2.383919e-04
6.422984e-05
-1.817488e-05
-3.192160e-05
-1.881046e-05
-4.934165e-06
1.721721e-06
2.686962e-06
1.477425e-06
3.039286e-07
-2.070092e-07
-2.388379e-07
-1.126168e-07
-1.147345e-08
2.478080e-08
2.120523e-08
7.917534e-09
-5.944033e-10
-2.772116e-09
-1.805041e-09
-4.635749e-10
2.077419e-10
2.865071e-10
1.417229e-10
1.486598e-11
-3.200460e-11
-2.719593e-11
-9.654082e-12
1.359956e-12
3.880831e-12
2.337563e-12
4.793698e-13
-3.697795e-13
-4.071774e-13
-1.755246e-13
-1.534951e-16
5.337355e-14
3.775709e-14
1.037401e-14
-4.212917e-15
-6.147746e-15
-3.049744e-15
-2.685099e-16
7.458463e-16
6.086246e-16
2.002286e-16
-4.587094e-17
-9.394762e-17
-5.212651e-17
-7.811398e-18
1.056221e-17
9.855635e-18
3.687050e-18
-4.452137e-19
-1.453253e-18
-8.866001e-19
-1.754563e-19
1.545941e-19
1.399768e-19
1.000090e+00
9.998184e-01
9.989997e-01
1.000435e+00
1.006693e+00
1.012081e+00
9.989609e-01
9.449617e-01
8.368950e-01
6.806606e-01
5.000000e-01
3.257312e-01
1.830140e-01
8.368706e-02
2.603287e-02
-2.243344e-04
-7.651132e-03
-6.597703e-03
-3.447913e-03
-1.011609e-03
1.443726e-04
4.019813e-04
2.788763e-04
1.052624e-04
2.654636e-06
-2.791489e-05
-2.206810e-05
-8.729358e-06
-2.328466e-07
2.340649e-06
1.809596e-06
6.622202e-07
-3.752264e-08
-2.206455e-07
-1.506415e-07
-4.531873e-08
1.127210e-08
2.153847e-08
1.227922e-08
2.504774e-09
-1.834371e-09
-2.066197e-09
-9.400349e-10
-5.870496e-11
2.389032e-10
1.887516e-10
6.342212e-11
-1.136829e-11
-2.720485e-11
-1.598806e-11
-3.189837e-12
2.559001e-12
2.787314e-12
1.207948e-12
1.342530e-14
-3.573397e-13
-2.579224e-13
-7.435594e-14
2.582377e-14
4.100053e-14
2.119009e-14
2.490569e-15
-4.717178e-15
-4.104293e-15
-1.461199e-15
2.241949e-16
6.071937e-16
3.608275e-16
6.863373e-17
-6.245424e-17
-6.529917e-17
-2.693343e-17
1.088440e-18
9.077712e-18
6.079935e-18
1.492782e-18
-8.238815e-19
-1.045411e-18
-4.778955e-19
-1.411224e-20
1.000033e+00
1.000070e+00
9.995041e-01
9.991080e-01
1.001691e+00
1.008055e+00
1.010760e+00
9.927960e-01
9.347698e-01
8.264316e-01
6.742688e-01
5.000000e-01
3.314260e-01
1.916060e-01
9.206256e-02
3.216250e-02
3.130817e-03
-6.501417e-03
-6.682917e-03
-3.938643e-03
-1.440179e-03
-7.915752e-05
3.456413e-04
3.026503e-04
1.434378e-04
2.691965e-05
-2.000476e-05
-2.324146e-05
-1.212508e-05
-2.557354e-06
1.565492e-06
1.922089e-06
9.869873e-07
1.768036e-07
-1.569179e-07
-1.679782e-07
-7.786983e-08
-7.833912e-09
1.722480e-08
1.491221e-08
5.775347e-09
-2.233563e-10
-1.880090e-09
-1.296376e-09
-3.768149e-10
1.154827e-10
1.961998e-10
1.066895e-10
1.779375e-11
-1.932649e-11
-1.923697e-11
-7.961048e-12
1.111490e-13
2.488998e-12
1.746443e-12
4.929415e-13
-1.784491e-13
-2.772479e-13
-1.434133e-13
-1.773760e-14
3.111027e-14
2.756748e-14
1.011154e-14
-1.239866e-15
-3.977478e-15
-2.447197e-15
-5.189494e-16
3.825239e-16
4.310095e-16
1.883486e-16
1.064464e-18
-5.722637e-17
-4.091428e-17
-1.136977e-17
4.560526e-18
6.741398e-18
3.368729e-18
3.038236e-19
-8.400081e-19
-5.916148e-19
9.999979e-01
1.000090e+00
9.999294e-01
9.992862e-01
9.995027e-01
1.002947e+00
1.008872e+00
1.008763e+00
9.865054e-01
9.252389e-01
8.169860e-01
6.685740e-01
5.000000e-01
3.365483e-01
1.994726e-01
9.993816e-02
3.815614e-02
6.627206e-03
-5.110725e-03
-6.569587e-03
-4.328825e-03
-1.851571e-03
-3.267555e-04
2.597615e-04
3.082423e-04
1.760738e-04
5.281900e-05
-8.732202e-06
-2.211858e-05
-1.474263e-05
-5.012061e-06
4.244562e-07
1.782018e-06
1.229774e-06
4.084792e-07
-5.296892e-08
-1.595203e-07
-1.033488e-07
-2.975030e-08
8.500689e-09
1.507842e-08
8.575515e-09
1.814246e-09
-1.224274e-09
-1.435477e-09
-6.808719e-10
-6.593429e-11
1.561741e-10
1.330563e-10
4.939834e-11
-4.340190e-12
-1.802816e-11
-1.169288e-11
-2.974024e-12
1.399005e-12
1.907133e-12
9.453754e-13
9.913220e-14
-2.164025e-13
-1.852314e-13
-6.667793e-14
8.794436e-15
2.664708e-14
1.635444e-14
3.529271e-15
-2.487761e-15
-2.856324e-15
-1.273971e-15
-3.144190e-17
3.688934e-16
2.723907e-16
8.045158e-17
-2.659111e-17
-4.369901e-17
-2.288248e-17
-2.790793e-18
5.077351e-18
4.477074e-18
1.581972e-18
-2.156096e-19
9.999902e-01
1.000040e+00
1.000081e+00
9.997472e-01
9.992148e-01
1.000087e+00
1.004085e+00
1.009183e+00
1.006259e+00
9.802049e-01
9.163129e-01
8.083940e-01
6.634517e-01
5.000000e-01
3.411924e-01
2.067158e-01
1.073596e-01
4.399749e-02
1.021956e-02
-3.517404e-03
-6.272804e-03
-4.613893e-03
-2.233629e-03
-5.885025e-04
1.484979e-04
2.953164e-04
2.011315e-04
7.863370e-05
5.166065e-06
-1.868949e-05
-1.629782e-05
-7.358425e-06
-9.844622e-07
1.385895e-06
1.353249e-06
6.283283e-07
8.052433e-08
-1.238470e-07
-1.170108e-07
-5.121607e-08
-3.667768e-09
1.244500e-08
1.032797e-08
3.943739e-09
-1.656458e-10
-1.298884e-09
-9.046666e-10
-2.742598e-10
7.064039e-11
1.339418e-10
7.638345e-11
1.524469e-11
-1.195903e-11
-1.328029e-11
-6.006601e-12
-3.264038e-13
1.584618e-12
1.243159e-12
4.152730e-13
-7.882283e-14
-1.831631e-13
-1.077248e-13
-2.155032e-14
1.741435e-14
1.908250e-14
8.357869e-15
1.478677e-16
-2.454876e-15
-1.802533e-15
-5.361770e-16
1.702073e-16
2.864343e-16
1.522608e-16
2.055751e-17
-3.222311e-17
-2.932415e-17
-1.097722e-17
1.225075e-18
4.302926e-18
2.312634e-18
9.999944e-01
1.000002e+00
1.000072e+00
1.000016e+00
9.995813e-01
9.992915e-01
1.000776e+00
1.005041e+00
1.009045e+00
1.003380e+00
9.739671e-01
9.079374e-01
8.005274e-01
6.588076e-01
5.000000e-01
3.454319e-01
2.134178e-01
1.143679e-01
4.967787e-02
1.387278e-02
-1.754484e-03
-5.808209e-03
-4.792652e-03
-2.577111e-03
-8.555442e-04
1.641180e-05
2.644068e-04
2.171862e-04
1.028198e-04
2.084898e-05
-1.310857e-05
-1.660747e-05
-9.379929e-06
-2.542849e-06
7.558186e-07
1.333769e-06
8.090273e-07
2.294079e-07
-6.302970e-08
-1.156852e-07
-6.899587e-08
-1.778328e-08
7.107555e-09
1.060853e-08
5.803077e-09
1.155442e-09
-8.756633e-10
-9.937865e-10
-4.714857e-10
-4.920545e-11
1.054802e-10
9.219591e-11
3.574238e-11
-1.681106e-12
-1.202271e-11
-8.253504e-12
-2.366183e-12
7.822113e-13
1.285805e-12
6.945276e-13
1.119058e-13
-1.304825e-13
-1.283937e-13
-5.289548e-14
1.045049e-15
1.691707e-14
1.186272e-14
3.357585e-15
-1.220037e-15
-1.906141e-15
-9.944146e-16
-1.282950e-16
2.135768e-16
1.925515e-16
7.222491e-17
-7.578046e-18
-2.767684e-17
-1.749249e-17
-3.825347e-18
2.262560e-18
9.999990e-01
9.999907e-01
1.000026e+00
1.000077e+00
9.999164e-01
9.994660e-01
9.994955e-01
1.001500e+00
1.005782e+00
1.008516e+00
1.000224e+00
9.678375e-01
9.000618e-01
7.932842e-01
6.545681e-01
5.000000e-01
3.493247e-01
2.196460e-01
1.209996e-01
5.519372e-02
1.755956e-02
1.497093e-04
-5.191238e-03
-4.866280e-03
-2.875198e-03
-1.120165e-03
-1.318328e-04
2.166870e-04
2.233652e-04
1.240597e-04
3.744327e-05
-5.654554e-06
-1.558579e-05
-1.089562e-05
-4.124830e-06
-6.596188e-08
1.161961e-06
9.277016e-07
3.779610e-07
1.794460e-08
-9.802211e-08
-8.029150e-08
-3.205668e-08
-4.511876e-10
9.199298e-09
7.059478e-09
2.550760e-09
-2.023345e-10
-9.144859e-10
-6.195685e-10
-1.851811e-10
4.916231e-11
9.204874e-11
5.303067e-11
1.123611e-11
-7.770797e-12
-9.095103e-12
-4.303288e-12
-3.873763e-13
1.023351e-12
8.634418e-13
3.171865e-13
-3.228814e-14
-1.200996e-13
-7.726132e-14
-1.931551e-14
9.626536e-15
1.286915e-14
6.352258e-15
6.438267e-16
-1.483018e-15
-1.266575e-15
-4.570060e-16
6.020687e-17
1.838363e-16
1.136384e-16
2.505577e-17
-1.704535e-17
-2.002888e-17
-7.862775e-18
1.000001e+00
9.999935e-01
9.999977e-01
1.000048e+00
1.000054e+00
9.998074e-01
9.994171e-01
9.997980e-01
1.002208e+00
1.006301e+00
1.007651e+00
9.968692e-01
9.618439e-01
8.926404e-01
7.865822e-01
6.506753e-01
5.000000e-01
3.529177e-01
2.254562e-01
1.272870e-01
6.054488e-02
2.125860e-02
2.170934e-03
-4.436681e-03
-4.837593e-03
-3.123061e-03
-1.375770e-03
-2.916744e-04
1.537760e-04
2.192718e-04
1.412838e-04
5.409733e-05
3.307528e-06
-1.323432e-05
-1.176753e-05
-5.607626e-06
-1.023067e-06
8.418456e-07
9.675626e-07
5.106050e-07
1.119628e-07
-6.448888e-08
-8.303440e-08
-4.464591e-08
-9.447286e-09
6.106508e-09
7.454543e-09
3.813655e-09
6.444045e-10
-6.583369e-10
-6.866123e-10
-3.153167e-10
-2.850745e-11
7.375719e-11
6.331215e-11
2.460393e-11
-9.565280e-13
-8.149364e-12
-5.708861e-12
-1.724093e-12
4.679150e-13
8.666385e-13
4.916555e-13
9.533303e-14
-8.026690e-14
-8.757042e-14
-3.923737e-14
-1.772096e-15
1.071205e-14
8.315309e-15
2.746946e-15
-5.594399e-16
-1.247569e-15
-7.303558e-16
-1.444141e-16
1.202773e-16
1.312019e-16
5.766792e-17
5.053546e-19
-1.488998e-17
1.000001e+00
9.999983e-01
9.999915e-01
1.000011e+00
1.000060e+00
1.000007e+00
9.997080e-01
9.994380e-01
1.000169e+00
1.002866e+00
1.006598e+00
1.006501e+00
9.933728e-01
9.560025e-01
8.856321e-01
7.803540e-01
6.470823e-01
5.000000e-01
3.562489e-01
2.308953e-01
1.332590e-01
6.573342e-02
2.495330e-02
4.288465e-03
-3.558443e-03
-4.710499e-03
-3.317483e-03
-1.616821e-03
-4.587862e-04
7.758221e-05
2.049052e-04
1.536714e-04
7.001900e-05
1.336000e-05
-9.628473e-06
-1.190322e-05
-6.879525e-06
-2.050857e-06
3.890068e-07
9.186880e-07
6.132874e-07
2.106497e-07
-1.717783e-08
-7.605297e-08
-5.386583e-08
-1.890543e-08
1.548032e-09
6.834098e-09
4.747529e-09
1.559774e-09
-2.427177e-10
-6.515206e-10
-4.173476e-10
-1.171284e-10
3.807697e-11
6.376271e-11
3.600079e-11
7.483189e-12
-5.344601e-12
-6.223943e-12
-2.978407e-12
-3.076194e-13
6.785419e-13
5.925096e-13
2.284399e-13
-1.307489e-14
-7.925128e-14
-5.396259e-14
-1.519890e-14
5.413250e-15
8.596396e-15
4.600039e-15
7.104497e-16
-8.948709e-16
-8.676842e-16
-3.544081e-16
9.852276e-18
1.163309e-16
8.093243e-17
1.968532e-17
1.000000e+00
1.000001e+00
9.999950e-01
9.999946e-01
1.000026e+00
1.000057e+00
9.999459e-01
9.996315e-01
9.995242e-01
1.000581e+00
1.003448e+00
1.006683e+00
1.005111e+00
9.897804e-01
9.503221e-01
8.790004e-01
7.745438e-01
6.437511e-01
5.000000e-01
3.593499e-01
2.360027e-01
1.389413e-01
7.076292e-02
2.863071e-02
6.484584e-03
-2.569432e-03
-4.489605e-03
-3.456535e-03
-1.838743e-03
-6.291562e-04
-9.819313e-06
1.805848e-04
1.606386e-04
8.450033e-05
2.406087e-05
-4.902793e-06
-1.125491e-05
-7.845368e-06
-3.081698e-06
-1.717718e-07
7.780995e-07
6.744924e-07
3.052023e-07
4.051057e-08