# vtk DataFile Version 3.0
QUICK_Gamma=0.0
ASCII
DATASET STRUCTURED_POINTS
DIMENSIONS 80 80 1
ORIGIN 0 0 0
SPACING 0.0125 0.0125 1
POINT_DATA 6400
SCALARS Temperature double 1
LOOKUP_TABLE default
5.000000e-001
6.188366e-002
-3.961222e-002
-2.603575e-002
-2.989148e-003
4.671616e-003
2.944565e-003
1.600565e-004
-7.648646e-004
-4.409185e-004
5.095084e-006
1.424324e-004
7.509957e-005
-6.115559e-006
-2.856463e-005
-1.375400e-005
2.163641e-006
6.006766e-006
2.632115e-006
-6.372048e-007
-1.304662e-006
-5.173805e-007
1.757038e-007
2.899574e-007
1.032284e-007
-4.699443e-008
-6.553048e-008
-2.070946e-008
1.236676e-008
1.499417e-008
4.140621e-009
-3.223393e-009
-3.462325e-009
-8.168563e-010
8.350573e-010
8.047861e-010
1.568318e-010
-2.154063e-010
-1.878584e-010
-2.859841e-011
5.536212e-011
4.385177e-011
4.620373e-012
-1.416855e-011
-1.006703e-011
-3.678505e-013
3.652941e-012
2.105601e-012
-4.012897e-013
-1.113305e-012
-3.019573e-013
5.982051e-013
7.151198e-013
1.386901e-013
-5.485855e-013
-8.386562e-013
-5.816955e-013
2.491940e-014
6.168572e-013
8.809959e-013
7.068947e-013
2.122676e-013
-3.501217e-013
-7.367009e-013
-8.246539e-013
-6.409270e-013
-3.139725e-013
7.686747e-015
2.217691e-013
2.976100e-013
2.630663e-013
1.725085e-013
7.669868e-014
6.294710e-015
-3.004123e-014
-3.856414e-014
-3.118510e-014
-1.895000e-014
-6.909954e-015
-1.430961e-015
9.381163e-001
5.000000e-001
1.358050e-001
-2.328141e-002
-4.225380e-002
-1.681271e-002
1.921546e-003
5.544789e-003
2.382411e-003
-3.734030e-004
-9.332710e-004
-3.910129e-004
8.642762e-005
1.767047e-004
6.966662e-005
-2.092928e-005
-3.579001e-005
-1.302151e-005
5.158061e-006
7.568025e-006
2.502070e-006
-1.282911e-006
-1.647971e-006
-4.873174e-007
3.208993e-007
3.663923e-007
9.508125e-008
-8.057483e-008
-8.269523e-008
-1.836228e-008
2.028538e-008
1.887032e-008
3.456563e-009
-5.116354e-009
-4.340173e-009
-6.188750e-010
1.291890e-009
1.003551e-009
1.001955e-010
-3.262302e-010
-2.325058e-010
-1.252622e-011
8.211607e-011
5.341333e-011
-5.641604e-014
-2.033928e-011
-1.145137e-011
1.404239e-012
4.888714e-012
1.399781e-012
-1.922830e-012
-1.731177e-012
6.566668e-013
2.443194e-012
2.109147e-012
7.763367e-014
-2.125209e-012
-3.070830e-012
-2.228991e-012
-1.092563e-013
2.157222e-012
3.479903e-012
3.342491e-012
1.960270e-012
5.091667e-014
-1.587207e-012
-2.437713e-012
-2.410132e-012
-1.758006e-012
-8.760612e-013
-1.052702e-013
3.728899e-013
5.411215e-013
4.869092e-013
3.286255e-013
1.623352e-013
3.998265e-014
-2.528693e-014
-4.737541e-014
-3.206284e-014
1.039612e+000
8.641950e-001
5.000000e-001
1.695997e-001
-6.242363e-003
-4.667022e-002
-2.668077e-002
-2.957328e-003
5.866270e-003
4.214989e-003
6.057313e-004
-9.777465e-004
-7.505676e-004
-1.073820e-004
1.889254e-004
1.446251e-004
1.831404e-005
-3.963060e-005
-2.931869e-005
-2.961354e-006
8.739045e-006
6.149600e-006
4.243196e-007
-1.990673e-006
-1.320665e-006
-4.198022e-008
4.636132e-007
2.883451e-007
-2.970861e-009
-1.096735e-007
-6.367963e-008
3.660260e-009
2.623913e-008
1.416984e-008
-1.564038e-009
-6.329446e-009
-3.166595e-009
5.385070e-010
1.535579e-009
7.083177e-010
-1.686173e-010
-3.733642e-010
-1.574667e-010
5.002993e-011
8.990014e-011
3.348917e-011
-1.466043e-011
-2.039260e-011
-4.938247e-012
5.326492e-012
3.649171e-012
-2.340487e-012
-4.521936e-012
-1.322387e-012
3.657993e-012
6.159795e-012
4.435474e-012
-2.351989e-013
-4.916433e-012
-6.943520e-012
-5.312796e-012
-9.738840e-013
3.915855e-012
7.216398e-012
7.803104e-012
5.881827e-012
2.614738e-012
-5.960939e-013
-2.739581e-012
-3.476881e-012
-3.056778e-012
-2.023819e-012
-9.157474e-013
-7.856974e-014
3.729749e-013
4.940334e-013
4.148683e-013
2.615850e-013
1.205407e-013
2.976681e-014
1.026036e+000
1.023281e+000
8.304003e-001
5.000000e-001
1.906250e-001
8.135609e-003
-4.699545e-002
-3.376551e-002
-8.140458e-003
4.913728e-003
5.466505e-003
1.754596e-003
-6.981705e-004
-9.852208e-004
-3.507679e-004
1.248053e-004
1.932548e-004
7.071849e-005
-2.581924e-005
-4.014529e-005
-1.449157e-005
5.833705e-006
8.674251e-006
3.008497e-006
-1.388676e-006
-1.927068e-006
-6.296038e-007
3.409333e-007
4.368048e-007
1.321363e-007
-8.526300e-008
-1.004822e-007
-2.766175e-008
2.156255e-008
2.336850e-008
5.740985e-009
-5.489743e-009
-5.477886e-009
-1.171875e-009
1.402648e-009
1.290343e-009
2.321881e-010
-3.581558e-010
-3.031921e-010
-4.287192e-011
9.025770e-011
6.833625e-011
4.761922e-012
-2.212526e-011
-1.148889e-011
4.770417e-012
7.195905e-012
-1.317793e-012
-8.724513e-012
-7.648344e-012
4.959303e-013
9.163198e-012
1.232203e-011
8.056270e-012
-1.047880e-012
-9.986779e-012
-1.429144e-011
-1.221388e-011
-5.187351e-012
3.361342e-012
9.934453e-012
1.251398e-011
1.107544e-011
7.087723e-012
2.513275e-012
-1.092195e-012
-3.020548e-012
-3.364645e-012
-2.682503e-012
-1.619137e-012
-6.536959e-013
-1.072032e-014
2.804651e-013
3.540653e-013
2.005363e-013
1.002989e+000
1.042254e+000
1.006242e+000
8.093750e-001
5.000000e-001
2.055563e-001
2.030218e-002
-4.544514e-002
-3.886002e-002
-1.307375e-002
3.215710e-003
6.155175e-003
2.873318e-003
-2.021803e-004
-1.071791e-003
-5.884817e-004
5.569646e-006
2.055775e-004
1.222457e-004
1.531910e-006
-4.235941e-005
-2.599686e-005
-3.750951e-007
9.184571e-006
5.644309e-006
2.057821e-008
-2.065255e-006
-1.245727e-006
2.026605e-008
4.767727e-007
2.783769e-007
-1.211529e-008
-1.122036e-007
-6.277524e-008
4.851649e-009
2.678353e-008
1.424464e-008
-1.671731e-009
-6.459884e-009
-3.243530e-009
5.318356e-010
1.567903e-009
7.374615e-010
-1.608927e-010
-3.793038e-010
-1.636817e-010
4.765446e-011
8.793317e-011
2.993136e-011
-1.667333e-011
-1.667952e-011
4.063832e-012
1.365637e-011
4.348171e-012
-1.151037e-011
-1.888900e-011
-1.215693e-011
3.506299e-012
1.773568e-011
2.201522e-011
1.411833e-011
-1.585933e-012
-1.725501e-011
-2.593208e-011
-2.472507e-011
-1.543009e-011
-2.812957e-012
8.085071e-012
1.409299e-011
1.466176e-011
1.129400e-011
6.320965e-012
1.770139e-012
-1.238054e-012
-2.520243e-012
-2.503733e-012
-1.816326e-012
-9.983246e-013
-3.288354e-013
-2.472257e-014
9.953284e-001
1.016813e+000
1.046670e+000
9.918644e-001
7.944437e-001
5.000000e-001
2.170431e-001
3.080288e-002
-4.296209e-002
-4.253284e-002
-1.758541e-002
1.097546e-003
6.366840e-003
3.865781e-003
4.211032e-004
-1.019054e-003
-7.877540e-004
-1.460242e-004
1.813289e-004
1.633245e-004
3.681488e-005
-3.541833e-005
-3.487543e-005
-8.539669e-006
7.446478e-006
7.650131e-006
1.919203e-006
-1.655202e-006
-1.715382e-006
-4.245165e-007
3.833544e-007
3.913768e-007
9.283114e-008
-9.148027e-008
-9.051270e-008
-2.006196e-008
2.230404e-008
2.115115e-008
4.270528e-009
-5.520514e-009
-4.979104e-009
-8.890976e-010
1.378313e-009
1.173811e-009
1.770037e-010
-3.428140e-010
-2.695137e-010
-2.740185e-011
8.323740e-011
5.121892e-011
-8.591496e-012
-2.308821e-011
7.979163e-013
2.303464e-011
1.947605e-011
-4.622039e-012
-2.831604e-011
-3.407255e-011
-1.834935e-011
8.950428e-012
3.223532e-011
3.940932e-011
2.764021e-011
3.488499e-012
-2.165613e-011
-3.767326e-011
-4.000493e-011
-3.043819e-011
-1.484902e-011
2.374162e-013
1.036839e-011
1.418686e-011
1.287864e-011
8.830284e-012
4.337981e-012
8.681956e-013
-1.090002e-012
-1.695917e-012
-1.579010e-012
-8.128265e-013
9.970554e-001
9.980785e-001
1.026681e+000
1.046995e+000
9.796978e-001
7.829569e-001
5.000000e-001
2.263400e-001
4.002282e-002
-4.000473e-002
-4.516819e-002
-2.163972e-002
-1.239586e-003
6.194099e-003
4.690800e-003
1.105117e-003
-8.480506e-004
-9.315806e-004
-3.102744e-004
1.252678e-004
1.884280e-004
7.456808e-005
-2.039049e-005
-3.950921e-005
-1.721089e-005
3.692579e-006
8.575883e-006
3.933538e-006
-7.449050e-007
-1.916720e-006
-8.988627e-007
1.656385e-007
4.386566e-007
2.059574e-007
-3.977694e-008
-1.022997e-007
-4.733347e-008
1.007801e-008
2.421175e-008
1.090090e-008
-2.639433e-009
-5.791619e-009
-2.508312e-009
7.030991e-010
1.389231e-009
5.682737e-010
-1.887517e-010
-3.236937e-010
-1.131489e-010
5.620779e-011
6.395170e-011
-1.797134e-012
-3.524415e-011
-1.167884e-011
3.017054e-011
4.633264e-011
2.381113e-011
-1.903827e-011
-5.230507e-011
-5.518701e-011
-2.636230e-011
1.816809e-011
5.578377e-011
6.951170e-011
5.544002e-011
2.244197e-011
-1.416274e-011
-4.060993e-011
-5.011824e-011
-4.385429e-011
-2.824139e-011
-1.091344e-011
2.495268e-012
9.659453e-012
1.112605e-011
8.984679e-012
5.501089e-012
2.360860e-012
1.231553e-013
-4.429020e-013
9.998399e-001
9.944552e-001
1.002957e+000
1.033766e+000
1.045445e+000
9.691971e-001
7.736600e-001
5.000000e-001
2.341275e-001
4.823217e-002
-3.681373e-002
-4.702928e-002
-2.525336e-002
-3.670578e-003
5.719214e-003
5.336686e-003
1.802738e-003
-5.829705e-004
-1.013371e-003
-4.718305e-004
4.431352e-005
1.951866e-004
1.102221e-004
8.080554e-007
-3.916845e-005
-2.510660e-005
-1.565765e-006
8.210466e-006
5.716845e-006
5.335491e-007
-1.790255e-006
-1.311121e-006
-1.431540e-007
4.036491e-007
3.033870e-007
3.473145e-008
-9.355169e-008
-7.080190e-008
-7.919599e-009
2.216442e-008
1.663998e-008
1.713052e-009
-5.336435e-009
-3.922686e-009
-3.456188e-010
1.291880e-009
9.098305e-010
5.261021e-011
-3.068065e-010
-1.852797e-010
1.898109e-011
7.327019e-011
7.117660e-012
-5.431611e-011
-4.310409e-011
1.987092e-011
7.434779e-011
7.741467e-011
2.814615e-011
-4.086857e-011
-8.853500e-011
-8.916592e-011
-4.383870e-011
2.379157e-011
8.228015e-011
1.084760e-010
9.663530e-011
5.750931e-011
1.011839e-011
-2.808094e-011
-4.767317e-011
-4.849134e-011
-3.669663e-011
-2.036544e-011
-5.940505e-012
3.331770e-012
7.209989e-012
7.103224e-012
5.281233e-012
2.432817e-012
1.000765e+000
9.976176e-001
9.941337e-001
1.008140e+000
1.038860e+000
1.042962e+000
9.599772e-001
7.658725e-001
5.000000e-001
2.408136e-001
5.562533e-002
-3.352271e-002
-4.830109e-002
-2.846183e-002
-6.117175e-003
5.010537e-003
5.807157e-003
2.481793e-003
-2.470206e-004
-1.033012e-003
-6.195674e-004
-5.412193e-005
1.834594e-004
1.403333e-004
2.594738e-005
-3.381747e-005
-3.123419e-005
-7.692372e-006
6.546119e-006
6.994796e-006
2.005831e-006
-1.333682e-006
-1.587280e-006
-4.966110e-007
2.854126e-007
3.654256e-007
1.199402e-007
-6.386584e-008
-8.526840e-008
-2.857776e-008
1.484915e-008
2.012187e-008
6.743851e-009
-3.557919e-009
-4.775940e-009
-1.564814e-009
8.684180e-010
1.112940e-009
3.284078e-010
-2.218671e-010
-2.282383e-010
-1.476422e-011
9.113446e-011
3.136067e-011
-7.213692e-011
-1.008594e-010
-3.340451e-011
7.061062e-011
1.343019e-010
1.164797e-010
2.912441e-011
-7.793930e-011
-1.489253e-010
-1.513711e-010
-8.887819e-011
6.067767e-012
9.193608e-011
1.383276e-010
1.366172e-010
9.831075e-011
4.512467e-011
-2.357130e-012
-3.202920e-011
-4.179639e-011
-3.668971e-011
-2.441190e-011
-1.155999e-011
-2.230398e-012
3.381745e-012
3.148877e-012
1.000441e+000
1.000373e+000
9.957850e-001
9.950863e-001
1.013074e+000
1.042533e+000
1.040005e+000
9.517678e-001
7.591864e-001
5.000000e-001
2.466611e-001
6.234601e-002
-3.020873e-002
-4.911685e-002
-3.130554e-002
-8.530464e-003
4.123276e-003
6.113552e-003
3.121076e-003
1.392515e-004
-9.941753e-004
-7.459561e-004
-1.630326e-004
1.545538e-004
1.625579e-004
5.282230e-005
-2.390787e-005
-3.492209e-005
-1.403690e-005
3.726832e-006
7.583525e-006
3.488821e-006
-5.896052e-007
-1.678081e-006
-8.447524e-007
9.584080e-008
3.789878e-007
2.024886e-007
-1.641994e-008
-8.726426e-008
-4.837437e-008
3.088166e-009
2.042737e-008
1.153176e-008
-6.673139e-010
-4.827159e-009
-2.712653e-009
1.809083e-010
1.124671e-009
5.792152e-010
-9.426672e-011
-2.466360e-010
-4.453130e-011
1.249845e-010
9.092391e-011
-6.349150e-011
-1.738398e-010
-1.485562e-010
-1.182647e-011
1.408829e-010
2.148561e-010
1.692810e-010
3.097570e-011
-1.287824e-010
-2.357954e-010
-2.490046e-010
-1.741457e-010
-5.259205e-011
6.390421e-011
1.372096e-010
1.546801e-010
1.269059e-010
7.659383e-011
2.624556e-011
-9.794767e-012
-2.723856e-011
-2.935570e-011
-2.255247e-011
-1.328088e-011
-5.102645e-012
9.999949e-001
1.000933e+000
9.993943e-001
9.945335e-001
9.967843e-001
1.017585e+000
1.045168e+000
1.036814e+000
9.443747e-001
7.533389e-001
5.000000e-001
2.518494e-001
6.850320e-002
-2.691723e-002
-4.957466e-002
-3.382397e-002
-1.088022e-002
3.101458e-003
6.270536e-003
3.707247e-003
5.584400e-004
-9.025615e-004
-8.463299e-004
-2.762476e-004
1.106315e-004
1.755086e-004
7.944604e-005
-1.019709e-005
-3.579996e-005
-2.000590e-005
-3.938224e-009
7.389689e-006
4.814089e-006
3.689236e-007
-1.560478e-006
-1.141307e-006
-1.442156e-007
3.383605e-007
2.699180e-007
4.304075e-008
-7.534896e-008
-6.399601e-008
-1.157120e-008
1.718984e-008
1.520420e-008
2.921895e-009
-3.988463e-009
-3.563825e-009
-6.552272e-010
9.372830e-010
7.571856e-010
3.903262e-011
-2.658999e-010
-9.251278e-011
1.651454e-010
2.051634e-010
2.017592e-011
-2.086885e-010
-3.019618e-010
-1.997333e-010
2.863034e-011
2.480174e-010
3.408255e-010
2.652637e-010
6.572911e-011
-1.610881e-010
-3.196950e-010
-3.587640e-010
-2.847441e-010
-1.462405e-010
-3.776115e-012
9.725788e-011
1.393564e-010
1.303663e-010
9.186698e-011
4.663060e-011
1.005252e-011
-1.084249e-011
-1.994832e-011
-1.321699e-011
9.998576e-001
1.000391e+000
1.000978e+000
9.982454e-001
9.938448e-001
9.989025e-001
1.021640e+000
1.047029e+000
1.033523e+000
9.376540e-001
7.481506e-001
5.000000e-001
2.565060e-001
7.418145e-002
-2.367518e-002
-4.974825e-002
-3.605346e-002
-1.314829e-002
1.980007e-003
6.293754e-003
4.232527e-003
9.962066e-004
-7.647785e-004
-9.182044e-004
-3.885868e-004
5.428406e-005
1.785743e-004
1.041446e-004
6.395805e-006
-3.375412e-005
-2.510265e-005
-4.348876e-006
6.400159e-006
5.842277e-006
1.452160e-006
-1.235421e-006
-1.348474e-006
-4.089503e-007
2.447776e-007
3.121668e-007
1.073374e-007
-5.004446e-008
-7.278977e-008
-2.717158e-008
1.059092e-008
1.707014e-008
6.678787e-009
-2.331899e-009
-3.955623e-009
-1.501574e-009
5.898622e-010
8.484637e-010
1.561341e-010
-3.134057e-010
-1.993690e-010
1.732493e-010
3.722706e-010
2.352921e-010
-1.058504e-010
-3.989510e-010
-4.562807e-010
-2.494187e-010
1.022893e-010
4.156509e-010
5.444440e-010
4.452386e-010
1.821018e-010
-1.209359e-010
-3.460038e-010
-4.301694e-010
-3.780573e-010
-2.420705e-010
-8.839410e-011
3.197718e-011
9.653325e-011
1.088931e-010
8.742113e-011
5.353685e-011
2.125747e-011
4.047537e-012
9.999249e-001
9.999136e-001
1.000751e+000
1.000698e+000
9.971267e-001
9.936332e-001
1.001240e+000
1.025253e+000
1.048301e+000
1.030209e+000
9.314968e-001
7.434940e-001
5.000000e-001
2.607251e-001
7.944761e-002
-2.049838e-002
-4.969392e-002
-3.802654e-002
-1.532439e-002
7.865714e-004
6.198581e-003
4.693019e-003
1.440976e-003
-5.876520e-004
-9.607070e-004
-4.958642e-004
-1.175797e-005
1.717410e-004
1.255876e-004
2.489683e-005
-2.887441e-005
-2.894419e-005
-8.993001e-006
4.666788e-006
6.470141e-006
2.565256e-006
-7.236147e-007
-1.439460e-006
-6.711567e-007
1.052651e-007
3.224136e-007
1.689135e-007
-1.353066e-008
-7.303572e-008
-4.165751e-008
1.278328e-009
1.670580e-008
1.005003e-008
-6.278106e-011
-3.812714e-009
-2.226986e-009
1.596591e-010
8.884939e-010
2.794082e-010
-3.895204e-010
-4.109289e-010
6.767359e-011
5.255396e-010
5.875368e-010
2.323171e-010
-2.879525e-010
-6.538392e-010
-6.653013e-010
-3.273913e-010
1.815012e-010
6.211595e-010
8.125555e-010
7.099460e-010
3.965371e-010
2.198736e-011
-2.750195e-010
-4.194400e-010
-4.109296e-010
-3.010402e-010
-1.571896e-010
-3.336091e-011
4.435560e-011
7.265150e-011
7.170277e-011
4.012306e-011
1.000006e+000
9.998233e-001
1.000107e+000
1.000985e+000
1.000202e+000
9.961342e-001
9.938059e-001
1.003671e+000
1.028462e+000
1.049117e+000
1.026917e+000
9.258186e-001
7.392749e-001
5.000000e-001
2.645779e-001
8.435548e-002
-1.739572e-002
-4.945536e-002
-3.977191e-002
-1.740345e-002
-4.569679e-004
5.999488e-003
5.087511e-003
1.883553e-003
-3.778148e-004
-9.741193e-004
-5.948147e-004
-8.481364e-005
1.554332e-004
1.427805e-004
4.435155e-005
-2.140179e-005
-3.126341e-005
-1.363029e-005
2.289828e-006
6.632246e-006
3.617172e-006
-6.042608e-008
-1.399242e-006
-9.050664e-007
-6.887470e-008
2.973660e-007
2.207043e-007
3.079179e-008
-6.405102e-008
-5.313858e-008
-9.757091e-009
1.399872e-008
1.255443e-008
2.532099e-009
-3.153900e-009
-2.744050e-009
-2.732101e-010
9.449601e-010
4.815138e-010
-4.442680e-010
-7.545932e-010
-2.763670e-010
4.922597e-010
9.518825e-010
8.094960e-010
1.762851e-010
-5.734886e-010
-1.041955e-009
-1.011801e-009
-5.271881e-010
1.654481e-010
7.634440e-010
1.053311e-009
9.851974e-010
6.569613e-010
2.378020e-010
-1.173977e-010
-3.223851e-010
-3.689408e-010
-3.030194e-010
-1.876796e-010
-7.881017e-011
4.417347e-012
2.321858e-011
1.000029e+000
9.999303e-001
9.998111e-001
1.000351e+000
1.001072e+000
9.995789e-001
9.953092e-001
9.942808e-001
1.006117e+000
1.031306e+000
1.049575e+000
1.023675e+000
9.205524e-001
7.354221e-001
5.000000e-001
2.681196e-001
8.894898e-002
-1.437172e-002
-4.906691e-002
-4.131473e-002
-1.938378e-002
-1.733289e-003
5.709756e-003
5.416618e-003
2.316749e-003
-1.414768e-004
-9.595238e-004
-6.829863e-004
-1.623680e-004
1.303802e-004
1.550360e-004
6.387361e-005
-1.168133e-005
-3.190149e-005
-1.798180e-005
-5.978878e-007
6.299048e-006
4.526923e-006
7.092145e-007
-1.224078e-006
-1.088394e-006
-2.636589e-007
2.371336e-007
2.567817e-007
7.879203e-008
-4.615294e-008
-6.008492e-008
-2.132657e-008
9.143429e-009
1.385339e-008
5.139902e-009
-2.090496e-009
-3.053014e-009
-6.887867e-010
1.063409e-009
8.632510e-010
-3.546930e-010
-1.179979e-009
-9.614373e-010
2.495252e-011
1.043447e-009
1.452913e-009
1.039409e-009
5.151379e-011
-9.964100e-010
-1.614289e-009
-1.566742e-009
-9.429986e-010
-6.097521e-011
7.154554e-010
1.139762e-009
1.154805e-009
8.648245e-010
4.486749e-010
6.996605e-011
-1.761975e-010
-2.731128e-010
-2.538632e-010
-1.820943e-010
-8.614183e-011
1.000014e+000
1.000021e+000
9.998554e-001
9.998752e-001
1.000588e+000
1.001019e+000
9.988949e-001
9.946633e-001
9.949895e-001
1.008530e+000
1.033824e+000
1.049748e+000
1.020498e+000
9.156445e-001
7.318804e-001
5.000000e-001
2.713941e-001
9.326443e-002
-1.142811e-002
-4.855588e-002
-4.267701e-002
-2.126594e-002
-3.028678e-003
5.341385e-003
5.682169e-003
2.735029e-003
1.156899e-004
-9.185348e-004
-7.586226e-004
-2.421375e-004
9.750939e-005
1.619352e-004
8.267359e-005
-1.225146e-007
-3.079531e-005
-2.180674e-005
-3.844841e-006
5.472777e-006
5.227482e-006
1.535456e-006
-9.201913e-007
-1.203624e-006
-4.639115e-007
1.448221e-007
2.727738e-007
1.260846e-007
-2.052928e-008
-6.146480e-008
-3.220904e-008
2.580711e-009
1.378257e-008
7.476964e-009
-7.985516e-010
-3.256891e-009
-1.176575e-009
1.207887e-009
1.519635e-009
1.018494e-010
-1.457473e-009
-1.914971e-009
-1.051204e-009
4.948917e-010
1.783582e-009
2.124576e-009
1.383669e-009
-3.300217e-011
-1.450216e-009
-2.278690e-009
-2.267757e-009
-1.552521e-009
-5.158432e-010
4.267881e-010
1.000710e-009
1.137845e-009
9.381379e-010
5.787534e-010
2.199715e-010
-2.912657e-011
-1.750135e-010
-1.384482e-010
9.999978e-001
1.000036e+000
9.999817e-001
9.998067e-001
9.999944e-001
1.000788e+000
1.000848e+000
9.981973e-001
9.941928e-001
9.958767e-001
1.010880e+000
1.036053e+000
1.049694e+000
1.017396e+000
9.110510e-001
7.286059e-001
5.000000e-001
2.744367e-001
9.733224e-002
-8.564849e-003
-4.794421e-002
-4.387800e-002
-2.305197e-002
-4.332283e-003
4.905109e-003
5.886778e-003
3.134217e-003
3.885952e-004
-8.530981e-004
-8.205487e-004
-3.221005e-004
5.786284e-005
1.632857e-004
1.000735e-004
1.283274e-005
-2.796236e-005
-2.490821e-005
-7.292352e-006
4.182189e-006
5.667770e-006
2.367461e-006
-5.019845e-007
-1.238645e-006
-6.545426e-007
2.595158e-008
2.660634e-007
1.684354e-007
1.094016e-008
-5.682815e-008
-4.131574e-008
-5.096513e-009
1.236370e-008
9.366592e-009
5.714085e-010
-3.499655e-009
-1.925767e-009
1.218741e-009
2.477058e-009
1.219683e-009
-1.120263e-009
-2.734031e-009
-2.632793e-009
-9.787114e-010
1.246710e-009
2.879015e-009
3.166702e-009
2.070759e-009
1.781823e-010
-1.665174e-009
-2.774697e-009
-2.887690e-009
-2.177015e-009
-1.072693e-009
-2.429871e-011
6.739145e-010
9.400504e-010
8.594311e-010
5.962415e-010
2.918063e-010
9.086519e-011
9.999940e-001
1.000013e+000
1.000040e+000
9.999293e-001
9.997944e-001
1.000146e+000
1.000932e+000
1.000583e+000
9.975182e-001
9.938864e-001
9.968985e-001
1.013148e+000
1.038027e+000
1.049455e+000
1.014372e+000
9.067356e-001
7.255633e-001
5.000000e-001
2.772760e-001
1.011781e-001
-5.780748e-003
-4.724967e-002
-4.493455e-002
-2.474478e-002
-5.635523e-003
4.410471e-003
6.033534e-003
3.511235e-003
6.727315e-004
-7.653438e-004
-8.680662e-004
-4.005053e-004
1.253415e-005
1.590804e-004
1.155114e-004
2.673491e-005
-2.348531e-005
-2.713484e-005
-1.078365e-005
2.476958e-006
5.813165e-006
3.156534e-006
9.922676e-009
-1.186883e-006
-8.215898e-007
-1.122221e-007
2.357993e-007
2.020888e-007
4.590853e-008
-4.630617e-008
-4.780647e-008
-1.323399e-008
9.806425e-009
1.082802e-008
2.028779e-009
-3.841956e-009
-3.169039e-009
7.613091e-010
3.541114e-009
3.175045e-009
4.039060e-010
-2.682667e-009
-4.193276e-009
-3.370048e-009
-7.479729e-010
2.312100e-009
4.390525e-009
4.679785e-009
3.258374e-009
9.036322e-010
-1.378663e-009
-2.823909e-009
-3.158991e-009
-2.577753e-009
-1.530121e-009
-4.787148e-010
2.815977e-010
6.309630e-010
7.051006e-010
4.341150e-010
9.999974e-001
9.999948e-001
1.000029e+000
1.000026e+000
9.998778e-001
9.998187e-001
1.000310e+000
1.001013e+000
1.000247e+000
9.968789e-001
9.937295e-001
9.980200e-001
1.015324e+000
1.039772e+000
1.049067e+000
1.011428e+000
9.026678e-001
7.227240e-001
5.000000e-001
2.799360e-001
1.048239e-001
-3.073908e-003
-4.648680e-002
-4.586143e-002
-2.634786e-002
-6.931632e-003
3.865913e-003
6.125789e-003
3.863896e-003
9.641480e-004
-6.574793e-004
-9.008619e-004
-4.758637e-004
-3.737823e-005
1.494602e-004
1.285386e-004
4.114536e-005
-1.749723e-005
-2.837970e-005
-1.417063e-005
4.221757e-007
5.644938e-006
3.858441e-006
5.906296e-007
-1.047057e-006
-9.529994e-007
-2.613904e-007
1.827897e-007
2.240423e-007
8.184359e-008
-3.051245e-008
-5.114684e-008
-2.122056e-008
6.442063e-009
1.208505e-008
3.823652e-009
-4.148001e-009
-5.111538e-009
-7.284614e-010
4.073639e-009
5.673155e-009
3.430251e-009
-9.124518e-010
-4.755988e-009
-6.106286e-009
-4.426289e-009
-6.715784e-010
3.367983e-009
6.010900e-009
6.416472e-009
4.793361e-009
2.092095e-009
-5.557777e-010
-2.330915e-009
-2.949387e-009
-2.605753e-009
-1.731579e-009
-8.033688e-010
-1.511915e-011
2.025991e-010
1.000001e+000
9.999924e-001
1.000003e+000
1.000040e+000
9.999985e-001
9.998367e-001
9.998747e-001
1.000472e+000
1.001033e+000
9.998607e-001
9.962928e-001
9.937062e-001
9.992134e-001
1.017403e+000
1.041315e+000
1.048556e+000
1.008565e+000
8.988219e-001
7.200640e-001
5.000000e-001
2.824364e-001
1.082884e-001
-4.419948e-004
-4.566757e-002
-4.667164e-002
-2.786501e-002
-8.215294e-003
3.278883e-003
6.167003e-003
4.190725e-003
1.259413e-003
-5.317136e-004
-9.189281e-004
-5.469352e-004
-9.080437e-005
1.346797e-004
1.388134e-004
5.564958e-005
-1.016811e-005
-2.857727e-005
-1.731867e-005
-1.906719e-006
5.158941e-006
4.434993e-006
1.212766e-006
-8.226439e-007
-1.039126e-006
-4.128073e-007
1.093199e-007
2.322520e-007
1.163146e-007
-1.040039e-008
-5.115520e-008
-2.865978e-008
2.518888e-009
1.341237e-008
6.406169e-009
-3.999670e-009
-7.778256e-009
-3.945736e-009
2.915261e-009
7.653267e-009
7.589712e-009
3.170042e-009
-2.985441e-009
-7.726715e-009
-8.926345e-009
-6.316161e-009
-1.338546e-009
3.770333e-009
7.097428e-009
7.798272e-009
6.202027e-009
3.386128e-009
5.531901e-010
-1.451025e-009
-2.342659e-009
-2.263191e-009
-1.682449e-009
-8.488095e-010
1.000001e+000
9.999975e-001
9.999913e-001
1.000014e+000
1.000042e+000
9.999632e-001
9.998116e-001
9.999557e-001
1.000620e+000
1.000994e+000
9.994416e-001
9.957675e-001
9.938014e-001
1.000457e+000
1.019384e+000
1.042677e+000
1.047944e+000
1.005781e+000
8.951761e-001
7.175636e-001
5.000000e-001
2.847942e-001
1.115881e-001
2.117568e-003
-4.480188e-002
-4.737662e-002
-2.930015e-002
-9.482358e-003
2.655942e-003
6.160642e-003
4.490815e-003
1.555568e-003
-3.902048e-004
-9.224960e-004
-6.127071e-004
-1.467259e-004
1.150789e-004
1.460918e-004
6.986610e-005
-1.693219e-006
-2.769937e-005
-2.010970e-005
-4.428420e-006
4.363865e-006
4.855049e-006
1.848134e-006
-5.211416e-007
-1.072988e-006
-5.578504e-007
1.885556e-008
2.256906e-007
1.471961e-007
1.286965e-008
-4.803617e-008
-3.555976e-008
-2.074007e-009
1.488148e-008
1.032037e-008
-2.563025e-009
-1.064873e-008
-9.253245e-009
-1.263159e-009
7.349391e-009
1.156080e-008
9.453106e-009
2.464361e-009
-5.827130e-009
-1.164976e-008
-1.277878e-008
-9.296272e-009
-3.162028e-009
2.984132e-009
7.061755e-009
8.248298e-009
6.956912e-009
4.332126e-009
1.552934e-009
-4.457540e-010
-1.681771e-009
-1.359459e-009
1.000001e+000
1.000001e+000
9.999939e-001
9.999942e-001
1.000026e+000
1.000035e+000
9.999254e-001
9.998048e-001
1.000054e+000
1.000746e+000
1.000903e+000
9.990038e-001
9.953070e-001
9.940005e-001
1.001733e+000
1.021266e+000
1.043878e+000
1.047250e+000
1.003074e+000
8.917116e-001
7.152058e-001
5.000000e-001
2.870236e-001
1.147371e-001
4.607477e-003
-4.389799e-002
-4.798650e-002
-3.065723e-002
-1.072960e-002
2.002859e-003
6.110110e-003
4.763711e-003
1.850082e-003
-2.350242e-004
-9.119798e-004
-6.723720e-004
-2.041911e-004
9.105829e-005
1.502168e-004
8.345199e-005
7.716967e-006
-2.575044e-005
-2.244397e-005
-7.059526e-006
3.279285e-006
5.095004e-006
2.469108e-006
-1.532512e-007
-1.050386e-006
-6.885759e-007
-8.439520e-008
2.042367e-007
1.727979e-007
3.812599e-008
-4.225175e-008
-4.233926e-008
-7.953850e-009
1.614614e-008
1.607697e-008
1.549296e-009
-1.216138e-008
-1.590773e-008
-9.164389e-009
2.781974e-009
1.301784e-008
1.650565e-008
1.200792e-008
2.077078e-009
-8.624668e-009
-1.571680e-008
-1.697823e-008
-1.290126e-008
-5.919797e-009
1.028566e-009
5.782012e-009
7.556393e-009
6.790507e-009
4.649441e-009
2.102249e-009
5.623773e-010
9.999998e-001
1.000002e+000
9.999996e-001
9.999913e-001
1.000000e+000
1.000035e+000
1.000020e+000
9.998898e-001
9.998165e-001
1.000163e+000
1.000846e+000
1.000765e+000
9.985590e-001
9.949125e-001
9.942902e-001
1.003029e+000
1.023052e+000
1.044935e+000
1.046487e+000
1.000442e+000
8.884119e-001
7.129764e-001
5.000000e-001
2.891370e-001
1.177478e-001
7.030464e-003
-4.296282e-002
-4.851024e-002
-3.194015e-002
-1.195457e-002
1.324706e-003
6.018696e-003
5.009315e-003
2.140804e-003
-6.813410e-005
-8.879305e-004
-7.253050e-004
-2.623237e-004
6.305872e-005
1.511076e-004
9.610569e-005
1.784501e-005
-2.276263e-005
-2.424063e-005
-9.717638e-006
1.933609e-006
5.138824e-006
3.049714e-006
2.679124e-007
-9.698974e-007
-7.982039e-007
-1.959512e-007
1.685113e-007
1.920287e-007
6.455877e-008
-3.409615e-008
-4.951315e-008
-1.617143e-008
1.624470e-008
2.381515e-008
1.005664e-008
-9.565024e-009
-2.145765e-008
-1.998926e-008
-7.496500e-009
8.788473e-009
2.084512e-008
2.351273e-008
1.638512e-008
3.322113e-009
-9.906185e-009
-1.843893e-008
-2.017979e-008
-1.602855e-008
-8.763512e-009
-1.488835e-009
3.710143e-009
5.897947e-009
6.039217e-009
3.759768e-009
9.999997e-001
1.000000e+000
1.000002e+000
9.999970e-001
9.999908e-001
1.000009e+000
1.000040e+000
9.999992e-001
9.998597e-001
9.998454e-001
1.000276e+000
1.000918e+000
1.000588e+000
9.981164e-001
9.945834e-001
9.946586e-001
1.004332e+000
1.024745e+000
1.045861e+000
1.045668e+000
9.978824e-001
8.852629e-001
7.108630e-001
5.000000e-001
2.911450e-001
1.206313e-001
9.389237e-003
-4.200217e-002
-4.895581e-002
-3.315271e-002
-1.315541e-002
6.259354e-004
5.889548e-003
5.227804e-003
2.425921e-003
1.086258e-004
-8.509991e-004
-7.710415e-004
-3.203279e-004
3.154457e-005
1.487490e-004
1.075680e-004
2.847329e-005
-1.879092e-005
-2.543761e-005
-1.232389e-005
3.619518e-007
4.977678e-006
3.566435e-006
7.276544e-007
-8.326256e-007
-8.813586e-007
-3.114017e-007
1.197304e-007
2.045515e-007
9.214350e-008
-2.313470e-008
-5.721040e-008
-2.806427e-008
1.323640e-008
3.246842e-008
2.400213e-008
3.384575e-010
-2.186153e-008
-3.086803e-008
-2.346147e-008
-4.427218e-009
1.680679e-008
3.091769e-008
3.277487e-008
2.307530e-008
7.072516e-009
-8.506053e-009
-1.853852e-008
-2.114185e-008
-1.757027e-008
-1.067315e-008
-3.846828e-009
1.886279e-009
2.855775e-009
9.999999e-001
9.999997e-001
1.000001e+000
1.000001e+000
9.999944e-001
9.999926e-001
1.000017e+000
1.000039e+000
9.999741e-001
9.998374e-001
9.998894e-001
1.000389e+000