# vtk DataFile Version 3.0
QUICK_Gamma=0.0
ASCII
DATASET STRUCTURED_POINTS
DIMENSIONS 80 80 1
ORIGIN 0 0 0
SPACING 0.0125 0.0125 1
POINT_DATA 6400
SCALARS Temperature double 1
LOOKUP_TABLE default
2.142857e-001
-8.571429e-003
-8.228571e-003
-1.470857e-003
-6.202286e-005
3.110091e-005
8.391878e-006
8.292669e-007
-7.761028e-008
-4.117617e-008
-6.318686e-009
-9.163916e-011
1.703164e-010
3.851561e-011
2.978787e-012
-5.299230e-013
-2.006475e-013
-2.623828e-014
5.093858e-016
8.941193e-016
1.724835e-016
9.397951e-018
-3.200934e-018
-9.541348e-019
-1.043403e-019
6.712587e-021
4.539851e-021
7.519912e-022
2.172261e-023
-1.799799e-023
-4.431256e-024
-3.906241e-025
5.090662e-026
2.240911e-026
3.178715e-027
-4.743223e-030
-9.635752e-029
-2.009278e-029
-1.328759e-030
3.237441e-031
1.078490e-031
1.293597e-032
-5.189168e-034
-4.970517e-034
-8.881335e-035
-3.739253e-036
1.879157e-036
5.068007e-037
5.005342e-038
-4.692802e-039
-2.487091e-039
-3.815050e-040
-5.503328e-042
1.028945e-041
2.325885e-042
1.797522e-043
-3.202857e-044
-1.211857e-044
-1.584042e-045
3.090821e-047
5.401198e-047
1.041527e-047
5.668473e-049
-1.934202e-049
-5.762366e-050
-6.298362e-051
4.060536e-052
2.742221e-052
4.540504e-053
1.308394e-054
-1.087388e-054
-2.676034e-055
-2.357506e-056
3.077339e-057
1.353493e-057
1.919134e-058
-3.029846e-061
-5.821027e-060
-1.213326e-060
-1.094197e-061
3.514286e-001
3.714286e-002
-7.862857e-003
-5.197486e-003
-1.450786e-003
-2.354605e-004
-6.515127e-006
9.824440e-006
3.733266e-006
7.989507e-007
9.044196e-008
-8.329504e-009
-7.369298e-009
-2.147373e-009
-3.819241e-010
-2.651676e-011
9.735081e-012
4.722621e-012
1.166367e-012
1.724551e-013
2.109913e-015
-7.880524e-015
-2.864959e-015
-6.090912e-016
-6.997570e-017
5.965751e-018
5.588614e-018
1.658028e-018
3.008878e-019
2.240214e-020
-7.205417e-021
-3.642159e-021
-9.144644e-022
-1.379456e-022
-2.556481e-024
6.002512e-024
2.228665e-024
4.798990e-025
5.653088e-026
-4.209010e-027
-4.299655e-027
-1.294423e-027
-2.380657e-028
-1.860201e-029
5.392543e-030
2.817489e-030
7.164949e-031
1.098989e-031
2.639905e-033
-4.570982e-033
-1.731840e-033
-3.775950e-034
-4.556627e-035
2.931563e-036
3.304361e-036
1.009948e-036
1.882639e-037
1.539493e-038
-4.024969e-039
-2.178486e-039
-5.612214e-040
-8.750323e-041
-2.565057e-042
3.477391e-042
1.345340e-042
2.969994e-043
3.668278e-044
-2.010993e-045
-2.537987e-045
-7.877457e-046
-1.488117e-046
-1.269680e-047
2.996704e-048
1.683686e-048
4.394550e-049
6.962493e-050
2.395977e-051
-2.642655e-051
-1.044728e-051
-1.359643e-052
3.673714e-001
6.037714e-002
4.228571e-004
-4.616434e-003
-2.141569e-003
-6.026936e-004
-1.065642e-004
-3.765703e-006
5.320738e-006
2.332235e-006
5.822160e-007
8.425310e-008
-2.209985e-009
-5.739656e-009
-2.032203e-009
-4.335425e-010
-4.671244e-011
6.982003e-012
5.187526e-012
1.526848e-012
2.757505e-013
1.741160e-014
-8.696040e-015
-4.127328e-015
-1.034249e-015
-1.535331e-016
-6.834603e-020
8.233008e-018
2.990280e-018
6.427891e-019
7.294054e-020
-7.885003e-021
-6.726843e-021
-2.008427e-021
-3.675022e-022
-2.610355e-023
1.001891e-023
4.979760e-024
1.261757e-024
1.911537e-025
2.311060e-027
-9.201861e-027
-3.419527e-027
-7.432522e-028
-8.727450e-029
7.602654e-030
7.275427e-030
2.204731e-030
4.088086e-031
3.124660e-032
-1.011027e-032
-5.233081e-033
-1.342013e-033
-2.070245e-034
-4.201402e-036
9.234218e-036
3.507939e-036
7.714559e-037
9.320389e-038
-6.713905e-039
-7.206489e-039
-2.217202e-039
-4.165940e-040
-3.373072e-041
9.494818e-042
5.113672e-042
1.327883e-042
2.083717e-043
5.647636e-045
-8.717623e-045
-3.385634e-045
-7.535346e-046
-9.340657e-047
5.573722e-048
6.774940e-048
2.116912e-048
4.030107e-049
3.428322e-050
-8.517061e-051
-3.237650e-051
3.666051e-001
6.591691e-002
5.281806e-003
-2.803091e-003
-1.922182e-003
-7.317789e-004
-1.969852e-004
-3.416510e-005
-4.329298e-007
2.333065e-006
1.037473e-006
2.763672e-007
4.444987e-008
-1.624171e-010
-2.971514e-009
-1.182323e-009
-2.820735e-010
-3.740200e-011
2.770292e-012
3.365476e-012
1.135809e-012
2.357475e-013
2.282080e-014
-5.214206e-015
-3.324501e-015
-9.568998e-016
-1.689933e-016
-8.503998e-018
6.504817e-018
2.925742e-018
7.246583e-019
1.047657e-019
-1.873605e-021
-6.590097e-021
-2.341352e-021
-4.994046e-022
-5.432884e-023
7.674056e-024
5.841150e-024
1.727814e-024
3.137012e-025
2.024880e-026
-9.782912e-027
-4.695667e-027
-1.185154e-027
-1.775004e-028
-3.568709e-031
9.516275e-030
3.491491e-030
7.573729e-031
8.705397e-032
-9.212453e-033
-8.044484e-033
-2.427552e-033
-4.490546e-034
-3.261006e-035
1.225758e-035
6.189895e-036
1.586407e-036
2.435067e-037
3.412803e-039
-1.175250e-038
-4.429695e-039
-9.747479e-040
-1.164211e-040
9.764951e-042
9.701712e-042
2.980382e-042
5.601518e-043
4.402222e-044
-1.377734e-044
-7.286283e-045
-1.894174e-045
-2.967802e-046
-6.815098e-048
1.319116e-047
5.098596e-048
1.137082e-048
1.401200e-049
-1.195833e-050
3.659659e-001
6.643844e-002
6.782645e-003
-1.698256e-003
-1.499207e-003
-6.657977e-004
-2.216854e-004
-5.606952e-005
-8.957623e-006
3.682689e-007
9.107799e-007
3.928754e-007
1.076353e-007
1.825874e-008
7.037140e-011
-1.280443e-009
-5.480637e-010
-1.412400e-010
-2.132057e-011
7.013718e-013
1.695254e-012
6.399115e-013
1.476284e-013
1.805576e-014
-2.173768e-015
-1.990845e-015
-6.472515e-016
-1.303838e-016
-1.114460e-017
3.610454e-018
2.070872e-018
5.813447e-019
9.960764e-020
3.589325e-021
-4.525216e-021
-1.936778e-021
-4.711277e-022
-6.561883e-023
2.571107e-024
4.776006e-024
1.652727e-024
3.472012e-025
3.563104e-026
-6.495516e-027
-4.465423e-027
-1.300627e-027
-2.324371e-028
-1.310117e-029
8.238030e-030
3.801887e-030
9.497334e-031
1.393496e-031
-1.462768e-033
-8.318742e-033
-2.995380e-033
-6.443212e-034
-7.162867e-035
9.273920e-036
7.377887e-036
2.204128e-036
4.041051e-037
2.722789e-038
-1.220506e-038
-5.972640e-039
-1.521393e-039
-2.306936e-040
-1.343888e-042
1.209703e-041
4.496927e-042
9.849164e-043
1.152216e-043
-1.143078e-044
-1.042014e-044
-3.179663e-045
-5.945989e-046
-4.461541e-047
1.587891e-047
8.184654e-048
2.120151e-048
1.670918e-049
3.658547e-001
6.629948e-002
7.021921e-003
-1.311537e-003
-1.238747e-003
-5.644250e-004
-2.033520e-004
-6.086803e-005
-1.424973e-005
-1.931764e-006
3.032686e-007
3.264202e-007
1.345335e-007
3.716440e-008
6.454070e-009
1.166559e-011
-4.963392e-010
-2.218659e-010
-6.043681e-011
-9.982384e-012
6.455474e-014
7.338950e-013
3.041644e-013
7.634302e-014
1.091724e-014
-6.450668e-016
-9.897239e-016
-3.593592e-016
-8.051536e-017
-9.095047e-018
1.531074e-018
1.188861e-018
3.745039e-019
7.321909e-020
5.434731e-021
-2.411701e-021
-1.278010e-021
-3.500688e-022
-5.801574e-023
-1.216858e-024
3.037656e-024
1.244530e-024
2.966629e-025
3.956684e-026
-2.488392e-027
-3.295623e-027
-1.110384e-027
-2.289144e-028
-2.189211e-029
5.076273e-030
3.199355e-030
9.151936e-031
1.602403e-031
7.534228e-033
-6.400963e-033
-2.840930e-033
-6.999604e-034
-1.000032e-034
2.499825e-036
6.634370e-036
2.338305e-036
4.968055e-037
5.291640e-038
-8.361220e-039
-6.098913e-039
-1.797790e-039
-3.252362e-040
-1.985823e-041
1.085734e-041
5.135502e-042
1.295575e-042
1.930396e-043
-7.672085e-046
-1.101855e-044
-4.025900e-045
-8.744126e-046
-9.944672e-047
1.172205e-047
9.810102e-048
1.812006e-048
3.658505e-001
6.622310e-002
7.004100e-003
-1.233845e-003
-1.140652e-003
-5.017948e-004
-1.786845e-004
-5.595018e-005
-1.518786e-005
-3.212773e-006
-3.044726e-007
1.486766e-007
1.089654e-007
4.279866e-008
1.178667e-008
2.053506e-009
-1.692188e-011
-1.791890e-010
-8.195692e-011
-2.325437e-011
-4.103353e-012
-4.858733e-014
2.872382e-013
1.287800e-013
3.464082e-014
5.559054e-015
-1.004127e-016
-4.323537e-016
-1.739263e-016
-4.262031e-017
-5.788461e-018
4.920880e-019
5.877498e-019
2.065553e-019
4.503526e-020
4.687323e-021
-1.034947e-021
-7.158408e-022
-2.192310e-022
-4.160351e-023
-2.619134e-024
1.581704e-024
7.866035e-025
2.103992e-025
3.366188e-026
1.732610e-028
-1.999465e-027
-7.879408e-028
-1.838802e-028
-2.337442e-029
2.085250e-030
2.211909e-030
7.260628e-031
1.465794e-031
1.290910e-032
-3.772897e-033
-2.207374e-033
-6.194008e-034
-1.059155e-034
-3.888578e-036
4.732976e-036
2.023491e-036
4.907040e-037
6.794407e-038
-2.813328e-039
-4.999560e-039
-1.722945e-039
-3.606080e-040
-3.649033e-041
7.006966e-042
4.724645e-042
1.371413e-042
2.440147e-043
1.313700e-044
-8.982120e-045
-4.104406e-045
-1.023036e-045
-1.491489e-046
2.277216e-048
6.574844e-048
3.658530e-001
6.620430e-002
6.979195e-003
-1.233766e-003
-1.118069e-003
-4.770427e-004
-1.634335e-004
-4.988875e-005
-1.389265e-005
-3.395873e-006
-6.156519e-007
-9.968710e-009
5.870476e-008
3.416641e-008
1.282564e-008
3.498796e-009
6.021911e-010
-1.579579e-011
-6.130116e-011
-2.830553e-011
-8.281278e-012
-1.536871e-012
-3.851588e-014
1.046189e-013
5.012082e-014
1.428927e-014
2.509544e-015
3.052123e-017
-1.716432e-016
-7.606354e-017
-2.014259e-017
-3.133943e-018
9.723687e-020
2.593634e-019
1.014060e-019
2.428506e-020
3.131143e-021
-3.513939e-022
-3.533751e-022
-1.206120e-022
-2.561402e-023
-2.442937e-024
6.861510e-025
4.339611e-025
1.294849e-025
2.384709e-026
1.227941e-027
-1.026908e-027
-4.840785e-028
-1.265169e-028
-1.950712e-029
2.267607e-031
1.300832e-030
4.948794e-031
1.130044e-031
1.362910e-032
-1.617616e-033
-1.459411e-033
-4.671085e-034
-9.221013e-035
-7.378497e-036
2.711414e-036
1.487020e-036
4.090849e-037
6.814898e-038
1.737941e-039
-3.385939e-039
-1.397195e-039
-3.330360e-040
-4.450715e-041
2.663142e-042
3.627800e-042
1.222016e-042
2.514646e-043
2.396935e-044
-5.576780e-045
-3.503431e-045
-1.000150e-045
-1.745744e-046
-1.156777e-049
3.658536e-001
6.620179e-002
6.970460e-003
-1.240554e-003
-1.117008e-003
-4.708004e-004
-1.571972e-004
-4.614256e-005
-1.239307e-005
-3.058363e-006
-6.510282e-007
-8.586459e-008
1.759720e-008
2.027056e-008
1.011448e-008
3.648442e-009
9.828438e-010
1.650042e-010
-8.748290e-012
-2.005633e-011
-9.275580e-012
-2.779112e-012
-5.367527e-013
-1.873025e-014
3.609230e-014
1.829211e-014
5.480983e-015
1.036039e-015
3.718567e-017
-6.327819e-017
-3.076713e-017
-8.726072e-018
-1.511123e-018
-1.214004e-020
1.045475e-019
4.546402e-020
1.183268e-020
1.781042e-021
-8.098923e-023
-1.575323e-022
-5.992080e-023
-1.402978e-023
-1.713559e-024
2.431095e-025
2.144029e-025
7.122336e-026
1.473778e-026
1.277035e-027
-4.501603e-028
-2.645201e-028
-7.700576e-029
-1.375724e-029
-5.457587e-031
6.627254e-031
2.981479e-031
7.617433e-032
1.129782e-032
-3.343024e-034
-8.400891e-034
-3.093952e-034
-6.910298e-035
-7.868464e-036
1.197109e-036
9.521938e-037
2.974052e-037
5.734039e-038
4.099945e-039
-1.903027e-039
-9.857947e-040
-2.658047e-040
-4.304603e-041
-5.747172e-043
2.366655e-042
9.444210e-043
2.210530e-043
2.840083e-044
-2.287405e-045
-2.563228e-045
-8.439746e-046
-9.405014e-047
3.658537e-001
6.620188e-002
6.968676e-003
-1.243563e-003
-1.118730e-003
-4.703055e-004
-1.555178e-004
-4.457140e-005
-1.146704e-005
-2.685529e-006
-5.636602e-007
-9.255880e-008
-9.887879e-010
9.668240e-009
6.332108e-009
2.834841e-009
9.894746e-010
2.631153e-010
4.261979e-011
-3.843277e-012
-6.308526e-012
-2.911666e-012
-8.895944e-013
-1.775613e-013
-7.540466e-015
1.192667e-014
6.344226e-015
1.985233e-015
3.992174e-016
2.212025e-017
-2.198015e-017
-1.169649e-017
-3.528520e-018
-6.673745e-019
-2.563377e-020
3.909506e-020
1.894984e-020
5.318626e-021
9.033494e-022
1.135306e-024
-6.446170e-023
-2.740663e-023
-7.003290e-024
-1.017430e-024
6.263091e-026
9.652813e-026
3.575013e-026
8.184445e-027
9.436974e-028
-1.651843e-028
-1.309761e-028
-4.240877e-029
-8.550325e-030
-6.649653e-031
2.934800e-031
1.619458e-031
4.604216e-032
7.973428e-033
2.179164e-034
-4.260785e-034
-1.838404e-034
-4.592975e-035
-6.538756e-036
3.207367e-037
5.398800e-037
1.929034e-037
4.212647e-038
4.502894e-039
-8.586868e-040
-6.164914e-040
-1.880369e-040
-3.537089e-041
-2.210738e-042
1.312760e-042
6.461731e-043
1.707417e-043
2.682552e-044
4.723920e-048
-1.626285e-045
-3.907751e-046
3.658537e-001
6.620203e-002
6.968542e-003
-1.244331e-003
-1.119648e-003
-4.707272e-004
-1.553435e-004
-4.412672e-005
-1.107099e-005
-2.455527e-006
-4.706147e-007
-7.004114e-008
-2.209600e-009
5.099053e-009
3.605662e-009
1.816801e-009
7.527713e-010
2.564700e-010
6.748029e-011
1.045227e-011
-1.459925e-012
-1.913715e-012
-8.813243e-013
-2.739877e-013
-5.627326e-014
-2.736525e-015
3.802309e-015
2.110664e-015
6.864838e-016
1.456421e-016
1.049586e-017
-7.266025e-018
-4.227328e-018
-1.349237e-018
-2.750659e-019
-1.740113e-020
1.370371e-020
7.438822e-021
2.238624e-021
4.198513e-022
1.545119e-023
-2.447548e-023
-1.170445e-023
-3.241040e-024
-5.379407e-025
3.996424e-027
4.007144e-026
1.662589e-026
4.168290e-027
5.830188e-028
-4.634927e-029
-5.952839e-029
-2.148280e-029
-4.808435e-030
-5.210015e-031
1.109435e-031
8.043017e-032
2.541080e-032
4.990546e-033
3.424935e-034
-1.905436e-034
-9.949692e-035
-2.764516e-035
-4.636313e-036
-6.636362e-038
2.732375e-037
1.134906e-037
2.773099e-038
3.780068e-039
-2.660078e-040
-3.457667e-040
-1.200690e-040
-2.562792e-041
-2.554074e-042
6.025778e-043
3.969455e-043
1.183053e-043
2.168941e-044
1.149025e-045
-6.538738e-046
3.658537e-001
6.620208e-002
6.968601e-003
-1.244431e-003
-1.119921e-003
-4.709902e-004
-1.554448e-004
-4.407196e-005
-1.095444e-005
-2.355613e-006
-4.132749e-007
-4.675201e-008
3.576622e-009
4.890675e-009
2.478281e-009
1.117003e-009
4.810333e-010
1.891202e-010
6.362753e-011
1.666408e-011
2.455505e-012
-4.979943e-013
-5.610570e-013
-2.584879e-013
-8.173652e-014
-1.723751e-014
-9.327042e-016
1.174900e-015
6.781586e-016
2.284792e-016
5.083236e-017
4.409081e-018
-2.301578e-018
-1.464871e-018
-4.926173e-019
-1.072176e-019
-9.046507e-021
4.532262e-021
2.776968e-021
8.922168e-022
1.820585e-022
1.191355e-023
-8.679577e-024
-4.717022e-024
-1.408390e-024
-2.605129e-025
-8.522545e-027
1.545259e-026
7.246251e-027
1.975874e-027
3.195699e-028
-5.658726e-030
-2.505052e-029
-1.013445e-029
-2.491555e-030
-3.345891e-031
3.332005e-032
3.688658e-032
1.298010e-032
2.839881e-033
2.874554e-034
-7.391210e-035
-4.959087e-035
-1.529995e-035
-2.925659e-036
-1.729953e-037
1.233500e-037
6.130296e-038
1.665450e-038
2.701647e-039
1.235269e-042
-1.749056e-040
-7.013797e-041
-1.676257e-041
-2.181408e-042
2.050296e-043
2.208964e-043
7.465330e-044
1.556731e-044
5.461583e-046
3.658537e-001
6.620209e-002
6.968632e-003
-1.244418e-003
-1.119968e-003
-4.710781e-004
-1.555174e-004
-4.409605e-005
-1.093825e-005
-2.325273e-006
-3.880486e-007
-3.241450e-008
9.419653e-009
6.374387e-009
2.447168e-009
8.379006e-010
3.016299e-010
1.170440e-010
4.477953e-011
1.513045e-011
3.989104e-012
5.610516e-013
-1.553909e-013
-1.592108e-013
-7.374834e-014
-2.374768e-014
-5.140834e-015
-3.062260e-016
3.528939e-016
2.115098e-016
7.365027e-017
1.710858e-017
1.711305e-018
-7.017154e-019
-4.898284e-019
-1.730103e-019
-3.991364e-020
-4.104910e-021
1.418971e-021
9.931687e-022
3.396084e-022
7.459802e-023
6.676259e-024
-2.882116e-024
-1.808593e-024
-5.802811e-025
-1.176552e-025
-7.588149e-027
5.554681e-027
2.985951e-027
8.815157e-028
1.602288e-028
4.310761e-030
-9.809309e-030
-4.494791e-030
-1.205365e-030
-1.894976e-031
5.583842e-033
1.572273e-032
6.200597e-033
1.494209e-033
1.920489e-034
-2.346788e-035
-2.293937e-035
-7.876048e-036
-1.683859e-036
-1.580501e-037
4.894486e-038
3.067328e-038
9.247281e-039
1.720605e-039
8.463424e-041
-7.967517e-041
-3.785722e-041
-1.005989e-041
-1.576187e-042
2.272737e-044
1.118081e-043
4.338758e-044
5.737288e-045
3.658537e-001
6.620209e-002
6.968640e-003
-1.244405e-003
-1.119966e-003
-4.710958e-004
-1.555441e-004
-4.411566e-005
-1.094394e-005
-2.320662e-006
-3.801878e-007
-2.604011e-008
1.301340e-008
7.843196e-009
2.827044e-009
8.347205e-010
2.323188e-010
7.108494e-011
2.575525e-011
9.922543e-012
3.458539e-012
9.356292e-013
1.282093e-013
-4.470757e-014
-4.378321e-014
-2.053856e-014
-6.751992e-015
-1.502193e-015
-9.856311e-017
1.032170e-016
6.429009e-017
2.310823e-017
5.587412e-018
6.278257e-019
-2.064407e-019
-1.588382e-019
-5.878880e-020
-1.429750e-020
-1.706893e-021
4.204605e-022
3.422659e-022
1.242837e-022
2.915666e-023
3.217757e-024
-8.942058e-025
-6.639326e-025
-2.284193e-025
-5.017861e-026
-4.559722e-027
1.859317e-027
1.171299e-027
3.733518e-028
7.486948e-029
4.610191e-030
-3.578506e-030
-1.888135e-030
-5.499120e-031
-9.795246e-032
-1.933808e-033
6.249005e-033
2.792443e-033
7.358174e-034
1.121797e-034
-4.791742e-036
-9.896430e-036
-3.804864e-036
-8.983660e-037
-1.101193e-037
1.627946e-038
1.430524e-038
4.795012e-039
1.001359e-039
8.634577e-041
-3.225885e-041
-1.901978e-041
-5.605896e-042
-1.014165e-042
-3.926280e-044
5.137357e-044
1.451696e-044
3.658537e-001
6.620209e-002
6.968641e-003
-1.244401e-003
-1.119962e-003
-4.710964e-004
-1.555502e-004
-4.412342e-005
-1.094916e-005
-2.322001e-006
-3.789060e-007
-2.401034e-008
1.462539e-008
8.745802e-009
3.196868e-009
9.318709e-010
2.325415e-010
5.382351e-011
1.398651e-011
4.920472e-012
2.033873e-012
7.652496e-013
2.187865e-013
3.062569e-014
-1.185704e-014
-1.168236e-014
-5.602129e-015
-1.887084e-015
-4.325146e-016
-3.147545e-017
2.942834e-017
1.910614e-017
7.085762e-018
1.779534e-018
2.207861e-019
-5.864445e-020
-5.014526e-020
-1.941750e-020
-4.957222e-021
-6.666502e-022
1.173462e-022
1.141731e-022
4.396428e-023
1.094917e-023
1.411452e-024
-2.568126e-025
-2.345210e-025
-8.642482e-026
-2.039628e-026
-2.315992e-027
5.750954e-028
4.397447e-028
1.511447e-028
3.301743e-029
2.971129e-030
-1.211555e-030
-7.555951e-031
-2.384431e-031
-4.713829e-032
-2.699126e-033
2.314865e-033
1.193093e-033
3.422755e-034
5.961165e-035
6.803537e-037
-3.989968e-036
-1.737032e-036
-4.494518e-037
-6.629240e-038
3.814725e-039
6.241997e-039
2.340207e-039
5.411773e-040
6.300398e-041
-1.116140e-041
-8.939943e-042
-2.927004e-042
-5.967867e-043
-4.671378e-044
1.546446e-044
3.658537e-001
6.620209e-002
6.968641e-003
-1.244400e-003
-1.119961e-003
-4.710951e-004
-1.555506e-004
-4.412538e-005
-1.095136e-005
-2.323374e-006
-3.792206e-007
-2.366014e-008
1.514820e-008
9.153747e-009
3.423953e-009
1.025115e-009
2.573662e-010
5.410640e-011
9.676446e-012
1.907474e-012
7.227223e-013
3.786350e-013
1.665509e-013
5.231545e-014
8.022057e-015
-2.869951e-015
-3.028731e-015
-1.501928e-015
-5.206902e-016
-1.233224e-016
-1.004292e-017
8.182836e-018
5.566785e-018
2.130679e-018
5.549954e-019
7.513083e-020
-1.606538e-020
-1.546067e-020
-6.257650e-021
-1.671494e-021
-2.481827e-022
3.045717e-023
3.699881e-023
1.509804e-023
3.973093e-024
5.789927e-025
-6.666860e-026
-8.002340e-026
-3.158547e-026
-7.957308e-027
-1.063066e-027
1.610354e-028
1.586728e-028
5.880931e-029
1.386844e-029
1.583850e-030
-3.760371e-031
-2.893629e-031
-9.887688e-032
-2.139591e-032
-1.874143e-033
7.946369e-034
4.860175e-034
1.514779e-034
2.944935e-035
1.527130e-036
-1.501015e-036
-7.535139e-037
-2.126954e-037
-3.614781e-038
-7.201476e-041
2.551190e-039
1.081612e-039
2.746690e-040
3.909806e-041
-2.897815e-042
-3.942882e-042
-1.442030e-042
-3.264849e-043
-1.586795e-044
3.658537e-001
6.620209e-002
6.968641e-003
-1.244400e-003
-1.119960e-003
-4.710945e-004
-1.555503e-004
-4.412559e-005
-1.095196e-005
-2.323987e-006
-3.795794e-007
-2.373398e-008
1.524268e-008
9.288157e-009
3.527261e-009
1.082330e-009
2.809036e-010
6.044582e-011
9.798286e-012
8.287014e-013
-4.860966e-014
3.581131e-014
6.231795e-014
3.679984e-014
1.316462e-014
2.347260e-015
-6.166395e-016
-7.645074e-016
-3.973615e-016
-1.424402e-016
-3.497244e-017
-3.209659e-018
2.219328e-018
1.594009e-018
6.301457e-019
1.700786e-019
2.490460e-020
-4.227682e-021
-4.667235e-021
-1.973839e-021
-5.502130e-022
-8.893127e-023
7.136075e-024
1.168105e-023
5.051573e-024
1.399486e-024
2.256336e-025
-1.468951e-026
-2.645811e-026
-1.119512e-026
-2.996215e-027
-4.545439e-028
3.869863e-029
5.520410e-029
2.209190e-029
5.586886e-030
7.569817e-031
-1.037556e-031
-1.064135e-031
-3.941057e-032
-9.244715e-033
-1.046654e-033
2.488993e-034
1.894841e-034
6.414774e-035
1.371150e-035
1.153133e-036
-5.232356e-037
-3.119179e-037
-9.585195e-038
-1.828959e-038
-8.328540e-040
9.744861e-040
4.756968e-040
1.320120e-040
2.185211e-041
-1.860181e-043
-1.632583e-042
-6.740372e-043
-9.518176e-044
3.658537e-001
6.620209e-002
6.968641e-003
-1.244400e-003
-1.119960e-003
-4.710944e-004
-1.555501e-004
-4.412550e-005
-1.095204e-005
-2.324165e-006
-3.797476e-007
-2.382729e-008
1.522535e-008
9.313406e-009
3.561768e-009
1.108508e-009
2.953375e-010
6.639342e-011
1.141640e-011
8.707409e-013
-3.192102e-013
-1.616584e-013
-2.713620e-014
8.849422e-015
8.660621e-015
3.553785e-015
7.464063e-016
-1.089282e-016
-1.884872e-016
-1.042121e-016
-3.878807e-017
-9.897744e-018
-1.026381e-018
5.870229e-019
4.495783e-019
1.837722e-019
5.136124e-020
8.081168e-021
-1.060303e-021
-1.382433e-021
-6.110019e-022
-1.773778e-022
-3.088445e-023
1.392796e-024
3.601097e-024
1.651615e-024
4.803155e-025
8.438952e-026
-2.160505e-027
-8.496080e-027
-3.861124e-027
-1.093732e-027
-1.841390e-028
6.618907e-030
1.856231e-029
8.042081e-030
2.170358e-030
3.356750e-031
-2.333254e-032
-3.767404e-032
-1.516123e-032
-3.828789e-033
-5.192009e-034
6.846473e-035
7.090194e-035
2.611511e-035
6.073838e-036
6.746312e-037
-1.661075e-037
-1.236100e-037
-4.135587e-038
-8.713115e-039
-6.948072e-040
3.452337e-040
1.998214e-040
6.046895e-041
1.130510e-041
4.340342e-043
-6.329317e-043
-1.830761e-043
3.658537e-001
6.620209e-002
6.968641e-003
-1.244400e-003
-1.119960e-003
-4.710944e-004
-1.555500e-004
-4.412544e-005
-1.095202e-005
-2.324193e-006
-3.797992e-007
-2.387294e-008
1.520117e-008
9.309341e-009
3.568467e-009
1.117358e-009
3.019748e-010
7.003871e-011
1.292063e-011
1.283610e-012
-3.060611e-013
-2.296729e-013
-7.769603e-014
-1.445266e-014
1.199357e-015
2.268870e-015
1.026211e-015
2.458308e-016
-1.137221e-017
-4.562402e-017
-2.722700e-017
-1.055198e-017
-2.802042e-018
-3.273582e-019
1.513718e-019
1.251644e-019
5.297015e-020
1.532113e-020
2.576142e-021
-2.495662e-022
-4.024953e-022
-1.860307e-022
-5.615235e-023
-1.044836e-023
1.584969e-025
1.085983e-024
5.289979e-025
1.611209e-025
3.050916e-026
2.082873e-028
-2.654140e-027
-1.299442e-027
-3.884814e-028
-7.143996e-029
-1.877018e-031
6.041686e-030
2.845752e-030
8.166028e-031
1.406777e-031
-2.808338e-033
-1.286100e-032
-5.648676e-033
-1.528152e-033
-2.379309e-034
1.474006e-035
2.551028e-035
1.025978e-035
2.577692e-036
3.466615e-037
-4.602398e-038
-4.700154e-038
-1.715729e-038
-3.946881e-039
-4.264969e-040
1.114070e-040
8.038883e-041
2.653182e-041
5.500238e-042
4.106679e-043
-1.583468e-043
3.658537e-001
6.620209e-002
6.968641e-003
-1.244400e-003
-1.119960e-003
-4.710944e-004
-1.555500e-004
-4.412542e-005
-1.095200e-005
-2.324188e-006
-3.798082e-007
-2.388763e-008
1.518888e-008
9.303089e-009
3.567512e-009
1.119125e-009
3.042423e-010
7.172245e-011
1.384214e-011
1.664355e-012
-2.007440e-013
-2.257807e-013
-9.482286e-014
-2.739987e-014
-4.862066e-015
2.846853e-016
6.645966e-016
3.098617e-016
8.066586e-017
1.982159e-018
-1.092958e-017
-7.122767e-018
-2.875885e-018
-7.943478e-019
-1.037263e-019
3.803213e-020
3.446905e-020
1.512090e-020
4.523526e-021
8.089629e-022
-5.336257e-023
-1.153669e-022
-5.581939e-023
-1.749501e-023
-3.456864e-024
-3.763876e-026
3.208031e-025
1.663359e-025
5.296363e-026
1.071818e-026
3.672892e-028
-8.074761e-028
-4.277426e-028
-1.346710e-028
-2.674155e-029
-9.135026e-031
1.904846e-030
9.813986e-031
2.986510e-031
5.635871e-032
1.049709e-033
-4.236134e-033
-2.044026e-033
-5.903013e-034
-1.027903e-034
1.161319e-036
8.833206e-036
3.902017e-036
1.053683e-036
1.637601e-037
-9.750823e-039
-1.717019e-038
-6.868694e-039
-1.712069e-039
-2.267880e-040
3.134028e-041
3.102938e-041
1.119665e-041
2.542739e-042
1.175412e-043
3.658537e-001
6.620209e-002
6.968641e-003
-1.244400e-003
-1.119960e-003
-4.710944e-004
-1.555500e-004
-4.412542e-005
-1.095199e-005
-2.324183e-006
-3.798073e-007
-2.389044e-008
1.518476e-008
9.299804e-009
3.565899e-009
1.118900e-009
3.047062e-010
7.230307e-011
1.426949e-011
1.897510e-012
-1.043031e-013
-1.989212e-013
-9.371046e-014
-3.171992e-014
-8.178141e-015
-1.290157e-015
1.386504e-016
2.091956e-016
9.508758e-017
2.579583e-017
1.810158e-018
-2.621606e-018
-1.874528e-018
-7.866582e-019
-2.254768e-019
-3.253094e-020
9.303670e-021
9.409089e-021
4.282425e-021
1.324010e-021
2.507300e-022
-9.521869e-024
-3.259832e-023
-1.653415e-023
-5.374865e-024
-1.121968e-024
-3.811426e-026
9.291990e-026
5.143949e-026
1.709878e-026
3.673855e-027
2.132660e-028
-2.393355e-028
-1.379936e-028
-4.568114e-029
-9.710529e-030
-5.902195e-031
5.816090e-031
3.305681e-031
1.064843e-031
2.175156e-032
1.088617e-033
-1.345564e-033
-7.200870e-034
-2.214659e-034
-4.237776e-035
-1.180288e-036
2.942608e-036
1.440383e-036
4.166209e-037
7.273546e-038
-5.253386e-040
-6.027340e-039
-2.661201e-039
-7.149996e-040
-1.102401e-040
6.699623e-042
1.150069e-041
4.559686e-042
6.314460e-043
3.658537e-001
6.620209e-002
6.968641e-003
-1.244400e-003
-1.119960e-003
-4.710944e-004
-1.555500e-004
-4.412541e-005
-1.095199e-005
-2.324181e-006
-3.798059e-007
-2.389030e-008
1.518392e-008
9.298662e-009
3.565025e-009
1.118484e-009
3.046534e-010
7.242440e-011
1.441809e-011
2.006021e-012
-4.526588e-014
-1.744775e-013
-8.686134e-014
-3.140958e-014
-9.269530e-015
-2.139646e-015
-2.701017e-016
7.017205e-017
6.731266e-017
2.898026e-017
7.957494e-018
7.746859e-019
-6.390250e-019
-4.980060e-019
-2.160814e-019
-6.401563e-020
-1.006857e-020
2.213919e-021
2.550972e-021
1.205100e-021
3.846598e-022
7.681166e-023
-9.673548e-025
-9.091360e-024
-4.841968e-024
-1.630927e-024
-3.581064e-025
-1.958568e-026
2.640597e-026
1.567004e-026
5.431699e-027
1.232610e-027
9.744817e-029
-6.908783e-029
-4.370447e-029
-1.519518e-029
-3.434910e-030
-2.879660e-031
1.717237e-031
1.089532e-031
3.710799e-032
8.132960e-033
6.223907e-034
-4.113267e-034
-2.474574e-034
-8.093404e-035
-1.680880e-035
-1.001568e-036
9.413415e-037
5.171772e-037
1.598899e-037
3.077725e-038
1.011407e-039
-2.030687e-039
-1.000221e-039
-2.886942e-040
-5.023849e-041
3.166450e-043
4.091504e-042
1.070061e-042
3.658537e-001
6.620209e-002
6.968641e-003
-1.244400e-003
-1.119960e-003
-4.710944e-004
-1.555500e-004
-4.412542e-005
-1.095199e-005
-2.324180e-006
-3.798053e-007
-2.388991e-008
1.518393e-008
9.298412e-009
3.564712e-009
1.118253e-009
3.045463e-010
7.241196e-011
1.444972e-011
2.044037e-012
-1.770105e-014
-1.595183e-013
-8.066230e-014
-2.966324e-014
-9.184449e-015
-2.415763e-015
-4.877628e-016
-3.582838e-017
3.065326e-017
2.137336e-017
8.642628e-018
2.358472e-018
2.634015e-019
-1.607023e-019
-1.337705e-019
-5.956349e-020
-1.814788e-020
-3.069165e-021
5.119052e-022
6.882094e-022
3.373725e-022
1.110301e-022
2.328324e-023
2.423629e-025
-2.505281e-024
-1.403693e-024
-4.894599e-025
-1.126273e-025
-8.276452e-027
7.364181e-027
4.708688e-027
1.700582e-027
4.058429e-028
3.973485e-029
-1.939745e-029
-1.360864e-029
-4.965858e-030
-1.187487e-030
-1.237527e-031
4.887031e-032
3.519246e-032
1.266595e-032
2.958575e-033
2.942436e-034
-1.204803e-034
-8.308830e-035
-2.888096e-035
-6.451600e-036
-5.565616e-037
2.879644e-037
1.809403e-037
5.972919e-038
1.251356e-038
8.156063e-040
-6.545433e-040
-3.654014e-040
-1.130818e-040
-2.177276e-041
-7.623357e-043
9.021648e-043
3.658537e-001
6.620209e-002
6.968641e-003
-1.244400e-003
-1.119960e-003
-4.710944e-004
-1.555500e-004
-4.412542e-005
-1.095199e-005
-2.324180e-006
-3.798051e-007
-2.388972e-008
1.518403e-008
9.298408e-009
3.564639e-009
1.118168e-009
3.044853e-010
7.238443e-011
1.444678e-011
2.052265e-012
-7.978434e-015
-1.525132e-013
-7.686945e-014
-2.809030e-014
-8.739214e-015
-2.392745e-015
-5.577118e-016
-9.161044e-017
3.184945e-018
1.172692e-017
6.572218e-018
2.500662e-018
6.707624e-019
7.838826e-020
-4.211785e-020
-3.630710e-020
-1.644992e-020
-5.127021e-021
-9.203432e-022
1.148493e-022
1.850618e-022
9.404910e-023
3.186160e-023
6.988500e-024
2.181451e-025
-6.828202e-025
-4.033000e-025
-1.454543e-025
-3.496105e-026
-3.169692e-027
2.015116e-027
1.397348e-027
5.254887e-028
1.314152e-028
1.511701e-029
-5.283073e-030
-4.171231e-030
-1.596999e-030
-4.022878e-031
-4.929383e-032
1.332351e-032
1.115436e-032
4.242230e-033
1.050614e-033
1.258083e-034
-3.353201e-035
-2.729452e-035
-1.008446e-035
-2.406699e-036
-2.631930e-037
8.355203e-038
6.176922e-038
2.177080e-038
4.918316e-039
4.537914e-040
-2.005446e-040
-1.299469e-040
-4.309048e-041
-9.055716e-042
-2.249522e-043
3.658537e-001