# vtk DataFile Version 3.0
QUICK_Gamma=0.0
ASCII
DATASET STRUCTURED_POINTS
DIMENSIONS 40 40 1
ORIGIN 0 0 0
SPACING 0.025 0.025 1
POINT_DATA 1600
SCALARS Temperature double 1
LOOKUP_TABLE default
5.000000e-001
6.188366e-002
-3.961222e-002
-2.603575e-002
-2.989148e-003
4.671616e-003
2.944565e-003
1.600565e-004
-7.648646e-004
-4.409185e-004
5.095084e-006
1.424324e-004
7.509957e-005
-6.115559e-006
-2.856463e-005
-1.375400e-005
2.163641e-006
6.006766e-006
2.632115e-006
-6.372048e-007
-1.304662e-006
-5.173805e-007
1.757038e-007
2.899574e-007
1.032284e-007
-4.699443e-008
-6.553047e-008
-2.070945e-008
1.236677e-008
1.499419e-008
4.140641e-009
-3.223371e-009
-3.462312e-009
-8.168165e-010
8.350309e-010
8.047288e-010
1.575922e-010
-2.182691e-010
-1.826871e-010
-2.248988e-011
9.381163e-001
5.000000e-001
1.358050e-001
-2.328141e-002
-4.225380e-002
-1.681271e-002
1.921546e-003
5.544789e-003
2.382411e-003
-3.734030e-004
-9.332710e-004
-3.910129e-004
8.642762e-005
1.767047e-004
6.966662e-005
-2.092928e-005
-3.579001e-005
-1.302151e-005
5.158061e-006
7.568025e-006
2.502070e-006
-1.282911e-006
-1.647971e-006
-4.873174e-007
3.208993e-007
3.663923e-007
9.508123e-008
-8.057486e-008
-8.269528e-008
-1.836233e-008
2.028532e-008
1.887028e-008
3.456514e-009
-5.116421e-009
-4.339959e-009
-6.195096e-010
1.292130e-009
1.009589e-009
7.016486e-011
-2.627047e-010
1.039612e+000
8.641950e-001
5.000000e-001
1.695997e-001
-6.242363e-003
-4.667022e-002
-2.668077e-002
-2.957328e-003
5.866270e-003
4.214989e-003
6.057313e-004
-9.777465e-004
-7.505676e-004
-1.073820e-004
1.889254e-004
1.446251e-004
1.831404e-005
-3.963060e-005
-2.931869e-005
-2.961354e-006
8.739045e-006
6.149600e-006
4.243196e-007
-1.990673e-006
-1.320665e-006
-4.198017e-008
4.636133e-007
2.883452e-007
-2.970758e-009
-1.096734e-007
-6.367953e-008
3.660337e-009
2.623926e-008
1.416974e-008
-1.563977e-009
-6.328161e-009
-3.172501e-009
5.494862e-010
1.559872e-009
4.453592e-010
1.026036e+000
1.023281e+000
8.304003e-001
5.000000e-001
1.906250e-001
8.135609e-003
-4.699545e-002
-3.376551e-002
-8.140458e-003
4.913728e-003
5.466505e-003
1.754596e-003
-6.981705e-004
-9.852208e-004
-3.507679e-004
1.248053e-004
1.932548e-004
7.071849e-005
-2.581924e-005
-4.014529e-005
-1.449157e-005
5.833705e-006
8.674251e-006
3.008497e-006
-1.388676e-006
-1.927068e-006
-6.296039e-007
3.409331e-007
4.368046e-007
1.321361e-007
-8.526318e-008
-1.004824e-007
-2.766184e-008
2.156271e-008
2.336742e-008
5.743003e-009
-5.485819e-009
-5.522729e-009
-1.002569e-009
1.142656e-009
1.002989e+000
1.042254e+000
1.006242e+000
8.093750e-001
5.000000e-001
2.055563e-001
2.030218e-002
-4.544514e-002
-3.886002e-002
-1.307375e-002
3.215710e-003
6.155175e-003
2.873318e-003
-2.021803e-004
-1.071791e-003
-5.884817e-004
5.569646e-006
2.055775e-004
1.222457e-004
1.531910e-006
-4.235941e-005
-2.599686e-005
-3.750950e-007
9.184571e-006
5.644309e-006
2.057858e-008
-2.065254e-006
-1.245727e-006
2.026658e-008
4.767731e-007
2.783773e-007
-1.211499e-008
-1.122036e-007
-6.277474e-008
4.852043e-009
2.677661e-008
1.427230e-008
-1.718803e-009
-6.577531e-009
-2.088191e-009
9.953284e-001
1.016813e+000
1.046670e+000
9.918644e-001
7.944437e-001
5.000000e-001
2.170431e-001
3.080288e-002
-4.296209e-002
-4.253284e-002
-1.758541e-002
1.097546e-003
6.366840e-003
3.865781e-003
4.211032e-004
-1.019054e-003
-7.877540e-004
-1.460242e-004
1.813289e-004
1.633245e-004
3.681488e-005
-3.541833e-005
-3.487543e-005
-8.539670e-006
7.446477e-006
7.650130e-006
1.919201e-006
-1.655203e-006
-1.715383e-006
-4.245173e-007
3.833538e-007
3.913766e-007
9.283096e-008
-9.148127e-008
-9.050825e-008
-2.007058e-008
2.229111e-008
2.131997e-008
3.620800e-009
-4.493729e-009
9.970554e-001
9.980785e-001
1.026681e+000
1.046995e+000
9.796978e-001
7.829569e-001
5.000000e-001
2.263400e-001
4.002282e-002
-4.000473e-002
-4.516819e-002
-2.163972e-002
-1.239586e-003
6.194099e-003
4.690800e-003
1.105117e-003
-8.480506e-004
-9.315806e-004
-3.102744e-004
1.252678e-004
1.884280e-004
7.456808e-005
-2.039049e-005
-3.950921e-005
-1.721089e-005
3.692581e-006
8.575885e-006
3.933541e-006
-7.449031e-007
-1.916719e-006
-8.988619e-007
1.656387e-007
4.386574e-007
2.059557e-007
-3.977782e-008
-1.022765e-007
-4.743331e-008
1.026647e-008
2.455119e-008
6.874375e-009
9.998399e-001
9.944552e-001
1.002957e+000
1.033766e+000
1.045445e+000
9.691971e-001
7.736600e-001
5.000000e-001
2.341275e-001
4.823217e-002
-3.681373e-002
-4.702928e-002
-2.525336e-002
-3.670578e-003
5.719214e-003
5.336686e-003
1.802738e-003
-5.829705e-004
-1.013371e-003
-4.718305e-004
4.431351e-005
1.951866e-004
1.102221e-004
8.080511e-007
-3.916846e-005
-2.510661e-005
-1.565770e-006
8.210462e-006
5.716842e-006
5.335471e-007
-1.790256e-006
-1.311121e-006
-1.431537e-007
4.036523e-007
3.033722e-007
3.476531e-008
-9.352651e-008
-7.134612e-008
-5.581413e-009
1.755560e-008
1.000765e+000
9.976176e-001
9.941337e-001
1.008140e+000
1.038860e+000
1.042962e+000
9.599772e-001
7.658725e-001
5.000000e-001
2.408136e-001
5.562533e-002
-3.352271e-002
-4.830109e-002
-2.846183e-002
-6.117175e-003
5.010537e-003
5.807157e-003
2.481793e-003
-2.470206e-004
-1.033012e-003
-6.195674e-004
-5.412192e-005
1.834594e-004
1.403333e-004
2.594739e-005
-3.381746e-005
-3.123418e-005
-7.692364e-006
6.546124e-006
6.994798e-006
2.005832e-006
-1.333682e-006
-1.587283e-006
-4.966053e-007
2.854115e-007
3.653561e-007
1.202855e-007
-6.468066e-008
-8.560500e-008
-1.667950e-008
1.000441e+000
1.000373e+000
9.957850e-001
9.950863e-001
1.013074e+000
1.042533e+000
1.040005e+000
9.517678e-001
7.591864e-001
5.000000e-001
2.466611e-001
6.234601e-002
-3.020873e-002
-4.911685e-002
-3.130554e-002
-8.530464e-003
4.123276e-003
6.113552e-003
3.121076e-003
1.392515e-004
-9.941753e-004
-7.459561e-004
-1.630326e-004
1.545537e-004
1.625579e-004
5.282228e-005
-2.390789e-005
-3.492210e-005
-1.403690e-005
3.726831e-006
7.583525e-006
3.488823e-006
-5.896054e-007
-1.678089e-006
-8.447027e-007
9.570231e-008
3.790434e-007
2.039450e-007
-2.430588e-008
-6.649604e-008
9.999949e-001
1.000933e+000
9.993943e-001
9.945335e-001
9.967843e-001
1.017585e+000
1.045168e+000
1.036814e+000
9.443747e-001
7.533389e-001
5.000000e-001
2.518494e-001
6.850320e-002
-2.691723e-002
-4.957466e-002
-3.382397e-002
-1.088022e-002
3.101458e-003
6.270536e-003
3.707247e-003
5.584400e-004
-9.025614e-004
-8.463298e-004
-2.762476e-004
1.106316e-004
1.755086e-004
7.944607e-005
-1.019707e-005
-3.579996e-005
-2.000590e-005
-3.940908e-009
7.389686e-006
4.814095e-006
3.689001e-007
-1.560452e-006
-1.141145e-006
-1.453168e-007
3.417803e-007
2.667385e-007
1.600438e-008
9.998576e-001
1.000391e+000
1.000978e+000
9.982454e-001
9.938448e-001
9.989025e-001
1.021640e+000
1.047029e+000
1.033523e+000
9.376540e-001
7.481506e-001
5.000000e-001
2.565060e-001
7.418145e-002
-2.367518e-002
-4.974825e-002
-3.605346e-002
-1.314829e-002
1.980007e-003
6.293754e-003
4.232527e-003
9.962065e-004
-7.647786e-004
-9.182046e-004
-3.885869e-004
5.428400e-005
1.785742e-004
1.041446e-004
6.395804e-006
-3.375412e-005
-2.510264e-005
-4.348877e-006
6.400167e-006
5.842291e-006
1.452012e-006
-1.234882e-006
-1.349306e-006
-4.115544e-007
2.682029e-007
2.272795e-007
9.999249e-001
9.999136e-001
1.000751e+000
1.000698e+000
9.971267e-001
9.936332e-001
1.001240e+000
1.025253e+000
1.048301e+000
1.030209e+000
9.314968e-001
7.434940e-001
5.000000e-001
2.607251e-001
7.944761e-002
-2.049838e-002
-4.969392e-002
-3.802654e-002
-1.532439e-002
7.865716e-004
6.198581e-003
4.693019e-003
1.440976e-003
-5.876518e-004
-9.607069e-004
-4.958641e-004
-1.175793e-005
1.717410e-004
1.255876e-004
2.489682e-005
-2.887442e-005
-2.894420e-005
-8.993019e-006
4.666872e-006
6.469969e-006
2.565091e-006
-7.206444e-007
-1.452282e-006
-6.437216e-007
1.269321e-007
1.000006e+000
9.998233e-001
1.000107e+000
1.000985e+000
1.000202e+000
9.961342e-001
9.938059e-001
1.003671e+000
1.028462e+000
1.049117e+000
1.026917e+000
9.258186e-001
7.392749e-001
5.000000e-001
2.645779e-001
8.435548e-002
-1.739572e-002
-4.945536e-002
-3.977191e-002
-1.740345e-002
-4.569685e-004
5.999488e-003
5.087510e-003
1.883553e-003
-3.778150e-004
-9.741194e-004
-5.948147e-004
-8.481362e-005
1.554332e-004
1.427805e-004
4.435156e-005
-2.140178e-005
-3.126344e-005
-1.363029e-005
2.290175e-006
6.630395e-006
3.622143e-006
-6.245879e-008
-1.450917e-006
-6.168903e-007
1.000029e+000
9.999303e-001
9.998111e-001
1.000351e+000
1.001072e+000
9.995789e-001
9.953092e-001
9.942808e-001
1.006117e+000
1.031306e+000
1.049575e+000
1.023675e+000
9.205524e-001
7.354221e-001
5.000000e-001
2.681196e-001
8.894898e-002
-1.437172e-002
-4.906691e-002
-4.131473e-002
-1.938377e-002
-1.733288e-003
5.709757e-003
5.416618e-003
2.316749e-003
-1.414768e-004
-9.595238e-004
-6.829864e-004
-1.623681e-004
1.303802e-004
1.550360e-004
6.387362e-005
-1.168129e-005
-3.190174e-005
-1.798097e-005
-5.989225e-007
6.293938e-006
4.565781e-006
5.742482e-007
-1.015402e-006
1.000014e+000
1.000021e+000
9.998554e-001
9.998752e-001
1.000588e+000
1.001019e+000
9.988949e-001
9.946633e-001
9.949895e-001
1.008530e+000
1.033824e+000
1.049748e+000
1.020498e+000
9.156445e-001
7.318804e-001
5.000000e-001
2.713941e-001
9.326443e-002
-1.142811e-002
-4.855588e-002
-4.267701e-002
-2.126595e-002
-3.028680e-003
5.341384e-003
5.682169e-003
2.735029e-003
1.156900e-004
-9.185347e-004
-7.586226e-004
-2.421375e-004
9.750937e-005
1.619351e-004
8.267372e-005
-1.227670e-007
-3.079566e-005
-2.180183e-005
-3.865532e-006
5.517985e-006
5.251313e-006
8.527211e-007
9.999978e-001
1.000036e+000
9.999817e-001
9.998067e-001
9.999944e-001
1.000788e+000
1.000848e+000
9.981973e-001
9.941928e-001
9.958767e-001
1.010880e+000
1.036053e+000
1.049694e+000
1.017396e+000
9.110510e-001
7.286059e-001
5.000000e-001
2.744367e-001
9.733225e-002
-8.564843e-003
-4.794420e-002
-4.387800e-002
-2.305197e-002
-4.332282e-003
4.905109e-003
5.886778e-003
3.134216e-003
3.885951e-004
-8.530981e-004
-8.205486e-004
-3.221004e-004
5.786280e-005
1.632857e-004
1.000741e-004
1.282974e-005
-2.795403e-005
-2.491407e-005
-7.365078e-006
4.631817e-006
4.225502e-006
9.999940e-001
1.000013e+000
1.000040e+000
9.999293e-001
9.997944e-001
1.000146e+000
1.000932e+000
1.000583e+000
9.975182e-001
9.938864e-001
9.968985e-001
1.013148e+000
1.038027e+000
1.049455e+000
1.014372e+000
9.067356e-001
7.255633e-001
5.000000e-001
2.772760e-001
1.011781e-001
-5.780755e-003
-4.724967e-002
-4.493455e-002
-2.474478e-002
-5.635522e-003
4.410472e-003
6.033534e-003
3.511235e-003
6.727314e-004
-7.653439e-004
-8.680662e-004
-4.005053e-004
1.253375e-005
1.590818e-004
1.155093e-004
2.672879e-005
-2.342707e-005
-2.736290e-005
-1.030771e-005
2.778435e-006
9.999974e-001
9.999948e-001
1.000029e+000
1.000026e+000
9.998778e-001
9.998187e-001
1.000310e+000
1.001013e+000
1.000247e+000
9.968789e-001
9.937295e-001
9.980200e-001
1.015324e+000
1.039772e+000
1.049067e+000
1.011428e+000
9.026678e-001
7.227240e-001
5.000000e-001
2.799360e-001
1.048239e-001
-3.073904e-003
-4.648680e-002
-4.586143e-002
-2.634786e-002
-6.931632e-003
3.865913e-003
6.125789e-003
3.863896e-003
9.641481e-004
-6.574794e-004
-9.008617e-004
-4.758642e-004
-3.737843e-005
1.494671e-004
1.285050e-004
4.123660e-005
-1.756403e-005
-2.914312e-005
-9.328121e-006
1.000001e+000
9.999924e-001
1.000003e+000
1.000040e+000
9.999985e-001
9.998367e-001
9.998747e-001
1.000472e+000
1.001033e+000
9.998607e-001
9.962928e-001
9.937062e-001
9.992134e-001
1.017403e+000
1.041315e+000
1.048556e+000
1.008565e+000
8.988219e-001
7.200640e-001
5.000000e-001
2.824364e-001
1.082884e-001
-4.419922e-004
-4.566757e-002
-4.667164e-002
-2.786501e-002
-8.215295e-003
3.278883e-003
6.167002e-003
4.190725e-003
1.259413e-003
-5.317135e-004
-9.189274e-004
-5.469398e-004
-9.078884e-005
1.346547e-004
1.387550e-004
5.626267e-005
-1.270942e-005
-2.248128e-005
1.000001e+000
9.999975e-001
9.999913e-001
1.000014e+000
1.000042e+000
9.999632e-001
9.998116e-001
9.999557e-001
1.000620e+000
1.000994e+000
9.994416e-001
9.957675e-001
9.938015e-001
1.000457e+000
1.019384e+000
1.042677e+000
1.047944e+000
1.005781e+000
8.951762e-001
7.175636e-001
5.000000e-001
2.847942e-001
1.115881e-001
2.117565e-003
-4.480188e-002
-4.737662e-002
-2.930015e-002
-9.482357e-003
2.655942e-003
6.160642e-003
4.490815e-003
1.555568e-003
-3.902023e-004
-9.225016e-004
-6.127074e-004
-1.466563e-004
1.147129e-004
1.471992e-004
6.836238e-005
-6.914706e-006
1.000001e+000
1.000001e+000
9.999939e-001
9.999942e-001
1.000026e+000
1.000035e+000
9.999254e-001
9.998048e-001
1.000054e+000
1.000746e+000
1.000902e+000
9.990036e-001
9.953068e-001
9.940002e-001
1.001733e+000
1.021266e+000
1.043878e+000
1.047250e+000
1.003074e+000
8.917115e-001
7.152058e-001
5.000000e-001
2.870236e-001
1.147371e-001
4.607476e-003
-4.389800e-002
-4.798651e-002
-3.065723e-002
-1.072960e-002
2.002860e-003
6.110110e-003
4.763710e-003
1.850083e-003
-2.350177e-004
-9.120285e-004
-6.721909e-004
-2.045710e-004
9.092337e-005
1.554759e-004
5.674931e-005
9.999998e-001
1.000002e+000
9.999996e-001
9.999913e-001
1.000000e+000
1.000035e+000
1.000020e+000
9.998898e-001
9.998166e-001
1.000163e+000
1.000847e+000
1.000765e+000
9.985596e-001
9.949132e-001
9.942909e-001
1.003029e+000
1.023052e+000
1.044935e+000
1.046487e+000
1.000442e+000
8.884119e-001
7.129764e-001
5.000000e-001
2.891370e-001
1.177478e-001
7.030466e-003
-4.296282e-002
-4.851025e-002
-3.194015e-002
-1.195457e-002
1.324706e-003
6.018696e-003
5.009309e-003
2.140832e-003
-6.820885e-005
-8.878580e-004
-7.248061e-004
-2.658805e-004
7.639406e-005
1.206711e-004
9.999997e-001
1.000000e+000
1.000002e+000
9.999970e-001
9.999908e-001
1.000009e+000
1.000040e+000
9.999992e-001
9.998595e-001
9.998450e-001
1.000275e+000
1.000917e+000
1.000586e+000
9.981150e-001
9.945822e-001
9.946579e-001
1.004332e+000
1.024745e+000
1.045861e+000
1.045668e+000
9.978825e-001
8.852629e-001
7.108630e-001
5.000000e-001
2.911450e-001
1.206313e-001
9.389239e-003
-4.200217e-002
-4.895581e-002
-3.315271e-002
-1.315541e-002
6.259391e-004
5.889536e-003
5.227827e-003
2.425950e-003
1.081977e-004
-8.490104e-004
-7.768080e-004
-3.122540e-004
5.434707e-005
9.999999e-001
9.999997e-001
1.000001e+000
1.000001e+000
9.999943e-001
9.999925e-001
1.000017e+000
1.000039e+000
9.999749e-001
9.998392e-001
9.998920e-001
1.000392e+000
1.000964e+000
1.000380e+000
9.976850e-001
9.943187e-001
9.950951e-001
1.005635e+000
1.026348e+000
1.046672e+000
1.044802e+000
9.953925e-001
8.822522e-001
7.088550e-001
5.000000e-001
2.930570e-001
1.233974e-001
1.168645e-002
-4.102097e-002
-4.933031e-002
-3.429855e-002
-1.433075e-002
-8.954478e-005
5.725613e-003
5.419843e-003
2.702951e-003
2.956172e-004
-8.019174e-004
-8.329618e-004
-2.478457e-004
1.000000e+000
9.999996e-001
1.000000e+000
1.000002e+000
1.000000e+000
9.999925e-001
9.999960e-001
1.000024e+000
1.000031e+000
9.999417e-001
9.998176e-001
9.999385e-001
1.000490e+000
1.000970e+000
1.000139e+000
9.972643e-001
9.941133e-001
9.955899e-001
1.006932e+000
1.027865e+000
1.047377e+000
1.043898e+000
9.929695e-001
8.793687e-001
7.069431e-001
5.000000e-001
2.948809e-001
1.260546e-001
1.392466e-002
-4.002337e-002
-4.964008e-002
-3.538117e-002
-1.547961e-002
-8.184395e-004
5.530261e-003
5.584659e-003
2.971533e-003
5.016623e-004
-8.099712e-004
-6.511105e-004
1.000000e+000
9.999999e-001
9.999996e-001
1.000001e+000
1.000002e+000
9.999982e-001
9.999936e-001
1.000008e+000
1.000042e+000
1.000039e+000
9.999365e-001
9.998355e-001
1.000022e+000
1.000600e+000
1.000961e+000
9.998842e-001
9.968651e-001
9.939660e-001
9.961339e-001
1.008215e+000
1.029300e+000
1.047987e+000
1.042963e+000
9.906107e-001
8.766026e-001
7.051191e-001
5.000000e-001
2.966240e-001
1.286108e-001
1.610635e-002
-3.901290e-002
-4.989083e-002
-3.640383e-002
-1.660159e-002
-1.557352e-003
5.306722e-003
5.715500e-003
3.266469e-003
6.115947e-004
-6.472958e-004
1.000000e+000
1.000000e+000
9.999998e-001
1.000000e+000
1.000002e+000
9.999989e-001
9.999855e-001
9.999704e-001
9.999765e-001
9.999995e-001
9.999780e-001
9.998724e-001
9.998152e-001
1.000080e+000
1.000683e+000
1.000920e+000
9.996126e-001
9.964891e-001
9.938741e-001
9.967209e-001
1.009482e+000
1.030657e+000
1.048510e+000
1.042002e+000
9.883136e-001
8.739454e-001
7.033760e-001
5.000000e-001
2.982927e-001
1.310730e-001
1.823384e-002
-3.799254e-002
-5.008763e-002
-3.736967e-002
-1.769714e-002
-2.299016e-003
5.039035e-003
5.860578e-003
3.528429e-003
4.238435e-004
1.000000e+000
1.000000e+000
9.999992e-001
9.999979e-001
1.000003e+000
1.000019e+000
1.000042e+000
1.000059e+000
1.000071e+000
1.000088e+000
1.000091e+000
1.000025e+000
9.998864e-001
9.998451e-001
1.000159e+000
1.000756e+000
1.000852e+000
9.993276e-001
9.961366e-001
9.938333e-001
9.973441e-001
1.010730e+000
1.031940e+000
1.048956e+000
1.041021e+000
9.860753e-001
8.713892e-001
7.017073e-001
5.000000e-001
2.998924e-001
1.334475e-001
2.030914e-002
-3.696466e-002
-5.023472e-002
-3.828398e-002
-1.875696e-002
-3.058318e-003
4.729035e-003
6.211350e-003
2.679770e-003
9.999996e-001
1.000000e+000
1.000004e+000
1.000000e+000
9.999745e-001
9.999251e-001
9.998689e-001
9.998295e-001
9.998252e-001
9.998661e-001
9.999430e-001
1.000003e+000
9.999725e-001
9.998642e-001
9.998755e-001
1.000244e+000
1.000820e+000
1.000764e+000
9.990353e-001
9.958093e-001
9.938396e-001
9.979973e-001
1.011955e+000
1.033153e+000
1.049330e+000
1.040023e+000
9.838936e-001
8.689271e-001
7.001074e-001
5.000003e-001
3.014280e-001
1.357407e-001
2.233300e-002
-3.592921e-002
-5.034207e-002
-3.914541e-002
-1.976474e-002
-3.967320e-003
4.980516e-003
4.905043e-003
1.000001e+000
9.999947e-001
9.999913e-001
1.000029e+000
1.000130e+000
1.000266e+000
1.000369e+000
1.000383e+000
1.000304e+000
1.000178e+000
1.000077e+000
1.000034e+000
1.000014e+000
9.999426e-001
9.998409e-001
9.999042e-001
1.000325e+000
1.000869e+000
1.000657e+000
9.987401e-001
9.955089e-001
9.938899e-001
9.986754e-001
1.013155e+000
1.034299e+000
1.049640e+000
1.039013e+000
9.817660e-001
8.665528e-001
6.985709e-001
5.000009e-001
3.029030e-001
1.379606e-001
2.430611e-002
-3.487983e-002
-5.043277e-002
-3.987757e-002
-2.103423e-002
-4.217915e-003
4.314871e-003
1.000001e+000
1.000023e+000
9.999850e-001
9.997942e-001
9.994836e-001
9.992131e-001
9.991371e-001
9.992842e-001
9.995533e-001
9.998060e-001
9.999642e-001
1.000036e+000
1.000058e+000
1.000030e+000
9.999320e-001
9.998321e-001
9.999396e-001
1.000401e+000
1.000902e+000
1.000532e+000
9.984444e-001
9.952361e-001
9.939812e-001
9.993741e-001
1.014331e+000
1.035381e+000
1.049891e+000
1.037993e+000
9.796906e-001
8.642616e-001
6.970926e-001
5.000040e-001
3.043113e-001
1.401181e-001
2.621630e-002
-3.383217e-002
-5.035876e-002
-4.078379e-002
-2.211563e-002
-2.378916e-003
9.999767e-001
9.999588e-001
1.000268e+000
1.000953e+000
1.001657e+000
1.001946e+000
1.001681e+000
1.001078e+000
1.000472e+000
1.000081e+000
9.999299e-001
9.999316e-001
9.999917e-001
1.000042e+000
1.000025e+000
9.999225e-001
9.998354e-001
9.999847e-001
1.000474e+000
1.000919e+000
1.000391e+000
9.981502e-001
9.949907e-001
9.941104e-001
1.000090e+000
1.015480e+000
1.036404e+000
1.050087e+000
1.036964e+000
9.776635e-001
8.620504e-001
6.956697e-001
5.000348e-001
3.056298e-001
1.422991e-001
2.786038e-002
-3.263858e-002
-5.030060e-002
-4.326771e-002
-1.585988e-002
1.000121e+000
9.998078e-001
9.983912e-001
9.965853e-001
9.956256e-001
9.960517e-001
9.974112e-001
9.988496e-001
9.997862e-001
1.000138e+000
1.000131e+000
1.000026e+000
9.999682e-001
9.999840e-001
1.000022e+000
1.000004e+000
9.999063e-001
9.998436e-001
1.000037e+000
1.000546e+000
1.000922e+000
1.000235e+000
9.978595e-001
9.947721e-001
9.942739e-001
1.000818e+000
1.016603e+000
1.037372e+000
1.050237e+000
1.035930e+000
9.756719e-001
8.598973e-001
6.942524e-001
5.001395e-001
3.067971e-001
1.449420e-001
2.894081e-002
-2.972526e-002
-5.429036e-002
-3.446467e-002
9.997354e-001
1.002211e+000
1.006773e+000
1.009806e+000
1.009305e+000
1.006219e+000
1.002784e+000
1.000543e+000
9.997181e-001
9.997316e-001
9.999529e-001
1.000069e+000
1.000058e+000
1.000015e+000
1.000006e+000
1.000017e+000
9.999826e-001
9.998865e-001
9.998534e-001
1.000092e+000
1.000612e+000
1.000911e+000
1.000068e+000
9.975751e-001
9.945812e-001
9.944687e-001
1.001552e+000
1.017690e+000
1.038284e+000
1.050356e+000
1.034938e+000
9.737718e-001
8.578696e-001
6.926438e-001
5.003316e-001
3.066063e-001
1.484061e-001
2.918140e-002
-2.954643e-002
-4.297981e-002
9.989599e-001
9.876641e-001
9.780518e-001
9.778644e-001
9.850348e-001
9.933588e-001
9.986974e-001
1.000575e+000
1.000516e+000
1.000039e+000
9.998224e-001
9.998677e-001
9.999739e-001
1.000025e+000
1.000029e+000
1.000029e+000
1.000022e+000
9.999674e-001
9.998700e-001
9.998668e-001
1.000148e+000
1.000672e+000
1.000886e+000
9.998888e-001
9.972972e-001
9.944238e-001
9.947095e-001
1.002308e+000
1.018732e+000
1.039066e+000
1.050307e+000
1.033859e+000
9.720162e-001
8.566018e-001
6.913690e-001
5.038525e-001
3.010502e-001
1.626725e-001
8.437389e-003
-2.933768e-002
1.015145e+000
1.049070e+000
1.053936e+000
1.036155e+000
1.015408e+000
1.002872e+000
9.988813e-001
9.991590e-001
1.000120e+000
1.000438e+000
1.000254e+000
1.000015e+000
9.999232e-001
9.999440e-001
9.999879e-001
1.000018e+000
1.000036e+000
1.000025e+000
9.999555e-001
9.998579e-001
9.998845e-001
1.000208e+000
1.000732e+000
1.000852e+000
9.996919e-001
9.969944e-001
9.942511e-001
9.949864e-001
1.003203e+000
1.020021e+000
1.040067e+000
1.050128e+000
1.031880e+000
9.683007e-001
8.533169e-001
6.860042e-001
5.170645e-001
2.787095e-001
2.408437e-001
-4.791786e-002
8.981069e-001
8.587915e-001
9.119512e-001
9.668565e-001
9.946755e-001
1.001704e+000
1.000677e+000
9.991563e-001
9.990305e-001
9.996105e-001
1.000061e+000
1.000162e+000
1.000079e+000
9.999937e-001
9.999664e-001
9.999795e-001
1.000008e+000
1.000033e+000
1.000023e+000
9.999460e-001
9.998487e-001
9.998956e-001
1.000252e+000
1.000790e+000
1.000867e+000
9.995896e-001
9.967391e-001
9.938999e-001
9.947368e-001
1.003406e+000
1.021123e+000
1.042427e+000
1.053630e+000
1.035616e+000
9.691868e-001
8.526889e-001
6.563746e-001
5.494081e-001
7.371376e-002
4.624591e-001
1.516538e+000
1.217359e+000
1.046885e+000
1.004975e+000
1.001899e+000
1.003454e+000
1.003065e+000
1.001515e+000
1.000241e+000
9.997457e-001
9.997810e-001
9.999471e-001
1.000036e+000
1.000037e+000
1.000009e+000
9.999892e-001
9.999892e-001
1.000005e+000
1.000023e+000
1.000014e+000
9.999544e-001
9.998824e-001
9.999245e-001
1.000203e+000
1.000618e+000
1.000686e+000
9.997250e-001
9.975237e-001
9.952038e-001
9.955093e-001
1.001749e+000
1.015348e+000
1.032795e+000
1.044408e+000
1.034783e+000
9.872020e-001
9.105281e-001
6.708589e-001
1.012476e+000
-1.371045e+000
5.819083e-001
1.695570e-001
4.093073e-003
-2.120936e-002
-1.062143e-002
-2.644056e-003
-2.001331e-004
1.168056e-004
5.462088e-005
1.113866e-005
3.715137e-007
-5.238521e-007
-1.843516e-007
-2.823646e-008
1.161618e-009
1.788209e-009
4.650150e-010
4.673310e-011
-9.028844e-012
-4.769813e-012
-9.171548e-013
-3.574892e-014
3.180569e-014
1.033338e-014
1.404366e-015
-7.386614e-017
-8.112041e-017
-1.857170e-017
-1.483151e-018
3.953728e-019
1.672885e-019
2.754381e-020
2.690687e-022
-1.070019e-021
-2.903953e-022
-3.176174e-023
3.586894e-024
2.215661e-024
4.256524e-025
-5.179401e-027
