# vtk DataFile Version 3.0
QUICK_Gamma=0.0
ASCII
DATASET STRUCTURED_POINTS
DIMENSIONS 40 40 1
ORIGIN 0 0 0
SPACING 0.025 0.025 1
POINT_DATA 1600
SCALARS Temperature double 1
LOOKUP_TABLE default
2.142857e-001
-8.571429e-003
-8.228571e-003
-1.470857e-003
-6.202286e-005
3.110091e-005
8.391878e-006
8.292669e-007
-7.761028e-008
-4.117617e-008
-6.318686e-009
-9.163916e-011
1.703164e-010
3.851561e-011
2.978787e-012
-5.299230e-013
-2.006475e-013
-2.623828e-014
5.093858e-016
8.941193e-016
1.724835e-016
9.397951e-018
-3.200934e-018
-9.541348e-019
-1.043403e-019
6.712587e-021
4.539851e-021
7.519912e-022
2.172261e-023
-1.799799e-023
-4.431256e-024
-3.906241e-025
5.090662e-026
2.240911e-026
3.178715e-027
-4.743223e-030
-9.635752e-029
-2.009278e-029
-1.328759e-030
9.090173e-031
3.514286e-001
3.714286e-002
-7.862857e-003
-5.197486e-003
-1.450786e-003
-2.354605e-004
-6.515127e-006
9.824440e-006
3.733266e-006
7.989507e-007
9.044196e-008
-8.329504e-009
-7.369298e-009
-2.147373e-009
-3.819241e-010
-2.651676e-011
9.735081e-012
4.722621e-012
1.166367e-012
1.724551e-013
2.109913e-015
-7.880524e-015
-2.864959e-015
-6.090912e-016
-6.997570e-017
5.965751e-018
5.588614e-018
1.658028e-018
3.008878e-019
2.240214e-020
-7.205417e-021
-3.642159e-021
-9.144644e-022
-1.379456e-022
-2.556481e-024
6.002512e-024
2.228665e-024
4.798990e-025
5.653088e-026
-5.276490e-027
3.673714e-001
6.037714e-002
4.228571e-004
-4.616434e-003
-2.141569e-003
-6.026936e-004
-1.065642e-004
-3.765703e-006
5.320738e-006
2.332235e-006
5.822160e-007
8.425310e-008
-2.209985e-009
-5.739656e-009
-2.032203e-009
-4.335425e-010
-4.671244e-011
6.982003e-012
5.187526e-012
1.526848e-012
2.757505e-013
1.741160e-014
-8.696040e-015
-4.127328e-015
-1.034249e-015
-1.535331e-016
-6.834603e-020
8.233008e-018
2.990280e-018
6.427891e-019
7.294054e-020
-7.885003e-021
-6.726843e-021
-2.008427e-021
-3.675022e-022
-2.610355e-023
1.001891e-023
4.979760e-024
1.261757e-024
9.576913e-026
3.666051e-001
6.591691e-002
5.281806e-003
-2.803091e-003
-1.922182e-003
-7.317789e-004
-1.969852e-004
-3.416510e-005
-4.329298e-007
2.333065e-006
1.037473e-006
2.763672e-007
4.444987e-008
-1.624171e-010
-2.971514e-009
-1.182323e-009
-2.820735e-010
-3.740200e-011
2.770292e-012
3.365476e-012
1.135809e-012
2.357475e-013
2.282080e-014
-5.214206e-015
-3.324501e-015
-9.568998e-016
-1.689933e-016
-8.503998e-018
6.504817e-018
2.925742e-018
7.246583e-019
1.047657e-019
-1.873605e-021
-6.590097e-021
-2.341352e-021
-4.994046e-022
-5.432884e-023
7.674056e-024
5.841150e-024
1.051819e-024
3.659659e-001
6.643844e-002
6.782645e-003
-1.698256e-003
-1.499207e-003
-6.657977e-004
-2.216854e-004
-5.606952e-005
-8.957623e-006
3.682689e-007
9.107799e-007
3.928754e-007
1.076353e-007
1.825874e-008
7.037140e-011
-1.280443e-009
-5.480637e-010
-1.412400e-010
-2.132057e-011
7.013718e-013
1.695254e-012
6.399115e-013
1.476284e-013
1.805576e-014
-2.173768e-015
-1.990845e-015
-6.472515e-016
-1.303838e-016
-1.114460e-017
3.610454e-018
2.070872e-018
5.813447e-019
9.960764e-020
3.589325e-021
-4.525216e-021
-1.936778e-021
-4.711277e-022
-6.561883e-023
2.571107e-024
3.311716e-024
3.658547e-001
6.629948e-002
7.021921e-003
-1.311537e-003
-1.238747e-003
-5.644250e-004
-2.033520e-004
-6.086803e-005
-1.424973e-005
-1.931764e-006
3.032686e-007
3.264202e-007
1.345335e-007
3.716440e-008
6.454070e-009
1.166559e-011
-4.963392e-010
-2.218659e-010
-6.043681e-011
-9.982384e-012
6.455474e-014
7.338950e-013
3.041644e-013
7.634302e-014
1.091724e-014
-6.450668e-016
-9.897239e-016
-3.593592e-016
-8.051536e-017
-9.095047e-018
1.531074e-018
1.188861e-018
3.745039e-019
7.321909e-020
5.434731e-021
-2.411701e-021
-1.278010e-021
-3.500688e-022
-5.801574e-023
9.039206e-025
3.658505e-001
6.622310e-002
7.004100e-003
-1.233845e-003
-1.140652e-003
-5.017948e-004
-1.786845e-004
-5.595018e-005
-1.518786e-005
-3.212773e-006
-3.044726e-007
1.486766e-007
1.089654e-007
4.279866e-008
1.178667e-008
2.053506e-009
-1.692188e-011
-1.791890e-010
-8.195692e-011
-2.325437e-011
-4.103353e-012
-4.858733e-014
2.872382e-013
1.287800e-013
3.464082e-014
5.559054e-015
-1.004127e-016
-4.323537e-016
-1.739263e-016
-4.262031e-017
-5.788461e-018
4.920880e-019
5.877498e-019
2.065553e-019
4.503526e-020
4.687323e-021
-1.034947e-021
-7.158408e-022
-2.192310e-022
-2.236985e-023
3.658530e-001
6.620430e-002
6.979195e-003
-1.233766e-003
-1.118069e-003
-4.770427e-004
-1.634335e-004
-4.988875e-005
-1.389265e-005
-3.395873e-006
-6.156519e-007
-9.968710e-009
5.870476e-008
3.416641e-008
1.282564e-008
3.498796e-009
6.021911e-010
-1.579579e-011
-6.130116e-011
-2.830553e-011
-8.281278e-012
-1.536871e-012
-3.851588e-014
1.046189e-013
5.012082e-014
1.428927e-014
2.509544e-015
3.052123e-017
-1.716432e-016
-7.606354e-017
-2.014259e-017
-3.133943e-018
9.723687e-020
2.593634e-019
1.014060e-019
2.428506e-020
3.131143e-021
-3.513939e-022
-3.533751e-022
-7.223811e-023
3.658536e-001
6.620179e-002
6.970460e-003
-1.240554e-003
-1.117008e-003
-4.708004e-004
-1.571972e-004
-4.614256e-005
-1.239307e-005
-3.058363e-006
-6.510282e-007
-8.586459e-008
1.759720e-008
2.027056e-008
1.011448e-008
3.648442e-009
9.828438e-010
1.650042e-010
-8.748290e-012
-2.005633e-011
-9.275580e-012
-2.779112e-012
-5.367527e-013
-1.873025e-014
3.609230e-014
1.829211e-014
5.480983e-015
1.036039e-015
3.718567e-017
-6.327819e-017
-3.076713e-017
-8.726072e-018
-1.511123e-018
-1.214004e-020
1.045475e-019
4.546402e-020
1.183268e-020
1.781042e-021
-8.098923e-023
-1.031353e-022
3.658537e-001
6.620188e-002
6.968676e-003
-1.243563e-003
-1.118730e-003
-4.703055e-004
-1.555178e-004
-4.457140e-005
-1.146704e-005
-2.685529e-006
-5.636602e-007
-9.255880e-008
-9.887879e-010
9.668240e-009
6.332108e-009
2.834841e-009
9.894746e-010
2.631153e-010
4.261979e-011
-3.843277e-012
-6.308526e-012
-2.911666e-012
-8.895944e-013
-1.775613e-013
-7.540466e-015
1.192667e-014
6.344226e-015
1.985233e-015
3.992174e-016
2.212025e-017
-2.198015e-017
-1.169649e-017
-3.528520e-018
-6.673745e-019
-2.563377e-020
3.909506e-020
1.894984e-020
5.318626e-021
9.033494e-022
-2.055892e-023
3.658537e-001
6.620203e-002
6.968542e-003
-1.244331e-003
-1.119648e-003
-4.707272e-004
-1.553435e-004
-4.412672e-005
-1.107099e-005
-2.455527e-006
-4.706147e-007
-7.004114e-008
-2.209600e-009
5.099053e-009
3.605662e-009
1.816801e-009
7.527713e-010
2.564700e-010
6.748029e-011
1.045227e-011
-1.459925e-012
-1.913715e-012
-8.813243e-013
-2.739877e-013
-5.627326e-014
-2.736525e-015
3.802309e-015
2.110664e-015
6.864838e-016
1.456421e-016
1.049586e-017
-7.266025e-018
-4.227328e-018
-1.349237e-018
-2.750659e-019
-1.740113e-020
1.370371e-020
7.438822e-021
2.238624e-021
2.232054e-022
3.658537e-001
6.620208e-002
6.968601e-003
-1.244431e-003
-1.119921e-003
-4.709902e-004
-1.554448e-004
-4.407196e-005
-1.095444e-005
-2.355613e-006
-4.132749e-007
-4.675201e-008
3.576622e-009
4.890675e-009
2.478281e-009
1.117003e-009
4.810333e-010
1.891202e-010
6.362753e-011
1.666408e-011
2.455505e-012
-4.979943e-013
-5.610570e-013
-2.584879e-013
-8.173652e-014
-1.723751e-014
-9.327042e-016
1.174900e-015
6.781586e-016
2.284792e-016
5.083236e-017
4.409081e-018
-2.301578e-018
-1.464871e-018
-4.926173e-019
-1.072176e-019
-9.046507e-021
4.532262e-021
2.776968e-021
5.142203e-022
3.658537e-001
6.620209e-002
6.968632e-003
-1.244418e-003
-1.119968e-003
-4.710781e-004
-1.555174e-004
-4.409605e-005
-1.093825e-005
-2.325273e-006
-3.880486e-007
-3.241450e-008
9.419653e-009
6.374387e-009
2.447168e-009
8.379006e-010
3.016299e-010
1.170440e-010
4.477953e-011
1.513045e-011
3.989104e-012
5.610516e-013
-1.553909e-013
-1.592108e-013
-7.374834e-014
-2.374768e-014
-5.140834e-015
-3.062260e-016
3.528939e-016
2.115098e-016
7.365027e-017
1.710858e-017
1.711305e-018
-7.017154e-019
-4.898284e-019
-1.730103e-019
-3.991364e-020
-4.104910e-021
1.418971e-021
5.998153e-022
3.658537e-001
6.620209e-002
6.968640e-003
-1.244405e-003
-1.119966e-003
-4.710958e-004
-1.555441e-004
-4.411566e-005
-1.094394e-005
-2.320662e-006
-3.801878e-007
-2.604011e-008
1.301340e-008
7.843196e-009
2.827044e-009
8.347205e-010
2.323188e-010
7.108494e-011
2.575525e-011
9.922543e-012
3.458539e-012
9.356292e-013
1.282093e-013
-4.470757e-014
-4.378321e-014
-2.053856e-014
-6.751992e-015
-1.502193e-015
-9.856311e-017
1.032170e-016
6.429009e-017
2.310823e-017
5.587412e-018
6.278257e-019
-2.064407e-019
-1.588382e-019
-5.878880e-020
-1.429750e-020
-1.706893e-021
2.902735e-022
3.658537e-001
6.620209e-002
6.968641e-003
-1.244401e-003
-1.119962e-003
-4.710964e-004
-1.555502e-004
-4.412342e-005
-1.094916e-005
-2.322001e-006
-3.789060e-007
-2.401034e-008
1.462539e-008
8.745802e-009
3.196868e-009
9.318709e-010
2.325415e-010
5.382351e-011
1.398651e-011
4.920472e-012
2.033873e-012
7.652496e-013
2.187865e-013
3.062569e-014
-1.185704e-014
-1.168236e-014
-5.602129e-015
-1.887084e-015
-4.325146e-016
-3.147545e-017
2.942834e-017
1.910614e-017
7.085762e-018
1.779534e-018
2.207861e-019
-5.864445e-020
-5.014526e-020
-1.941750e-020
-4.957222e-021
-3.335152e-022
3.658537e-001
6.620209e-002
6.968641e-003
-1.244400e-003
-1.119961e-003
-4.710951e-004
-1.555506e-004
-4.412538e-005
-1.095136e-005
-2.323374e-006
-3.792206e-007
-2.366014e-008
1.514820e-008
9.153747e-009
3.423953e-009
1.025115e-009
2.573662e-010
5.410640e-011
9.676446e-012
1.907474e-012
7.227223e-013
3.786350e-013
1.665509e-013
5.231545e-014
8.022057e-015
-2.869951e-015
-3.028731e-015
-1.501928e-015
-5.206902e-016
-1.233224e-016
-1.004292e-017
8.182836e-018
5.566785e-018
2.130679e-018
5.549954e-019
7.513083e-020
-1.606538e-020
-1.546067e-020
-6.257650e-021
-9.266290e-022
3.658537e-001
6.620209e-002
6.968641e-003
-1.244400e-003
-1.119960e-003
-4.710945e-004
-1.555503e-004
-4.412559e-005
-1.095196e-005
-2.323987e-006
-3.795794e-007
-2.373398e-008
1.524268e-008
9.288157e-009
3.527261e-009
1.082330e-009
2.809036e-010
6.044582e-011
9.798286e-012
8.287014e-013
-4.860966e-014
3.581131e-014
6.231795e-014
3.679984e-014
1.316462e-014
2.347260e-015
-6.166395e-016
-7.645074e-016
-3.973615e-016
-1.424402e-016
-3.497244e-017
-3.209659e-018
2.219328e-018
1.594009e-018
6.301457e-019
1.700786e-019
2.490460e-020
-4.227682e-021
-4.667235e-021
-1.122323e-021
3.658537e-001
6.620209e-002
6.968641e-003
-1.244400e-003
-1.119960e-003
-4.710944e-004
-1.555501e-004
-4.412550e-005
-1.095204e-005
-2.324165e-006
-3.797476e-007
-2.382729e-008
1.522535e-008
9.313406e-009
3.561768e-009
1.108508e-009
2.953375e-010
6.639342e-011
1.141640e-011
8.707409e-013
-3.192102e-013
-1.616584e-013
-2.713620e-014
8.849422e-015
8.660621e-015
3.553785e-015
7.464063e-016
-1.089282e-016
-1.884872e-016
-1.042121e-016
-3.878807e-017
-9.897744e-018
-1.026381e-018
5.870229e-019
4.495783e-019
1.837722e-019
5.136124e-020
8.081168e-021
-1.060303e-021
-8.014732e-022
3.658537e-001
6.620209e-002
6.968641e-003
-1.244400e-003
-1.119960e-003
-4.710944e-004
-1.555500e-004
-4.412544e-005
-1.095202e-005
-2.324193e-006
-3.797992e-007
-2.387294e-008
1.520117e-008
9.309341e-009
3.568467e-009
1.117358e-009
3.019748e-010
7.003871e-011
1.292063e-011
1.283610e-012
-3.060611e-013
-2.296729e-013
-7.769603e-014
-1.445266e-014
1.199357e-015
2.268870e-015
1.026211e-015
2.458308e-016
-1.137221e-017
-4.562402e-017
-2.722700e-017
-1.055198e-017
-2.802042e-018
-3.273582e-019
1.513718e-019
1.251644e-019
5.297015e-020
1.532113e-020
2.576142e-021
-1.632098e-022
3.658537e-001
6.620209e-002
6.968641e-003
-1.244400e-003
-1.119960e-003
-4.710944e-004
-1.555500e-004
-4.412542e-005
-1.095200e-005
-2.324188e-006
-3.798082e-007
-2.388763e-008
1.518888e-008
9.303089e-009
3.567512e-009
1.119125e-009
3.042423e-010
7.172245e-011
1.384214e-011
1.664355e-012
-2.007440e-013
-2.257807e-013
-9.482286e-014
-2.739987e-014
-4.862066e-015
2.846853e-016
6.645966e-016
3.098617e-016
8.066586e-017
1.982159e-018
-1.092958e-017
-7.122767e-018
-2.875885e-018
-7.943478e-019
-1.037263e-019
3.803213e-020
3.446905e-020
1.512090e-020
4.523526e-021
4.379725e-022
3.658537e-001
6.620209e-002
6.968641e-003
-1.244400e-003
-1.119960e-003
-4.710944e-004
-1.555500e-004
-4.412542e-005
-1.095199e-005
-2.324183e-006
-3.798073e-007
-2.389044e-008
1.518476e-008
9.299804e-009
3.565899e-009
1.118900e-009
3.047062e-010
7.230307e-011
1.426949e-011
1.897510e-012
-1.043031e-013
-1.989212e-013
-9.371046e-014
-3.171992e-014
-8.178141e-015
-1.290157e-015
1.386504e-016
2.091956e-016
9.508758e-017
2.579583e-017
1.810158e-018
-2.621606e-018
-1.874528e-018
-7.866582e-019
-2.254768e-019
-3.253094e-020
9.303670e-021
9.409089e-021
4.282425e-021
7.317929e-022
3.658537e-001
6.620209e-002
6.968641e-003
-1.244400e-003
-1.119960e-003
-4.710944e-004
-1.555500e-004
-4.412541e-005
-1.095199e-005
-2.324181e-006
-3.798059e-007
-2.389030e-008
1.518392e-008
9.298662e-009
3.565025e-009
1.118484e-009
3.046534e-010
7.242440e-011
1.441809e-011
2.006021e-012
-4.526588e-014
-1.744775e-013
-8.686134e-014
-3.140958e-014
-9.269530e-015
-2.139646e-015
-2.701017e-016
7.017205e-017
6.731266e-017
2.898026e-017
7.957494e-018
7.746859e-019
-6.390250e-019
-4.980060e-019
-2.160814e-019
-6.401563e-020
-1.006857e-020
2.213919e-021
2.550972e-021
6.666185e-022
3.658537e-001
6.620209e-002
6.968641e-003
-1.244400e-003
-1.119960e-003
-4.710944e-004
-1.555500e-004
-4.412542e-005
-1.095199e-005
-2.324180e-006
-3.798053e-007
-2.388991e-008
1.518393e-008
9.298412e-009
3.564712e-009
1.118253e-009
3.045463e-010
7.241196e-011
1.444972e-011
2.044037e-012
-1.770105e-014
-1.595183e-013
-8.066230e-014
-2.966324e-014
-9.184449e-015
-2.415763e-015
-4.877628e-016
-3.582838e-017
3.065326e-017
2.137336e-017
8.642628e-018
2.358472e-018
2.634015e-019
-1.607023e-019
-1.337705e-019
-5.956349e-020
-1.814788e-020
-3.069165e-021
5.119052e-022
3.778175e-022
3.658537e-001
6.620209e-002
6.968641e-003
-1.244400e-003
-1.119960e-003
-4.710944e-004
-1.555500e-004
-4.412542e-005
-1.095199e-005
-2.324180e-006
-3.798051e-007
-2.388972e-008
1.518403e-008
9.298408e-009
3.564639e-009
1.118168e-009
3.044853e-010
7.238443e-011
1.444678e-011
2.052265e-012
-7.978434e-015
-1.525132e-013
-7.686945e-014
-2.809030e-014
-8.739214e-015
-2.392745e-015
-5.577118e-016
-9.161044e-017
3.184945e-018
1.172692e-017
6.572218e-018
2.500662e-018
6.707624e-019
7.838826e-020
-4.211785e-020
-3.630710e-020
-1.644992e-020
-5.127021e-021
-9.203432e-022
5.936497e-023
3.658537e-001
6.620209e-002
6.968641e-003
-1.244400e-003
-1.119960e-003
-4.710944e-004
-1.555500e-004
-4.412542e-005
-1.095199e-005
-2.324180e-006
-3.798051e-007
-2.388967e-008
1.518409e-008
9.298435e-009
3.564636e-009
1.118147e-009
3.044621e-010
7.236835e-011
1.443971e-011
2.051570e-012
-5.843101e-015
-1.500273e-013
-7.508860e-014
-2.712809e-014
-8.339903e-015
-2.279234e-015
-5.515478e-016
-1.093523e-016
-1.111383e-017
4.613524e-018
4.038570e-018
1.940131e-018
6.987142e-019
1.830144e-019
2.106662e-020
-1.150672e-020
-9.930760e-021
-4.541429e-021
-1.440678e-021
-1.524337e-022
3.658537e-001
6.620209e-002
6.968641e-003
-1.244400e-003
-1.119960e-003
-4.710944e-004
-1.555500e-004
-4.412542e-005
-1.095199e-005
-2.324180e-006
-3.798051e-007
-2.388966e-008
1.518410e-008
9.298451e-009
3.564643e-009
1.118146e-009
3.044563e-010
7.236213e-011
1.443549e-011
2.049750e-012
-6.007914e-015
-1.494742e-013
-7.445310e-014
-2.667519e-014
-8.095668e-015
-2.177819e-015
-5.226093e-016
-1.077151e-016
-1.561890e-017
9.475257e-019
2.197468e-018
1.275750e-018
5.476511e-019
1.880260e-019
4.790575e-020
5.153718e-021
-3.244756e-021
-2.726500e-021
-1.250257e-021
-2.213042e-022
3.658537e-001
6.620209e-002
6.968641e-003
-1.244400e-003
-1.119960e-003
-4.710944e-004
-1.555500e-004
-4.412542e-005
-1.095199e-005
-2.324180e-006
-3.798051e-007
-2.388966e-008
1.518411e-008
9.298456e-009
3.564648e-009
1.118148e-009
3.044558e-010
7.236050e-011
1.443382e-011
2.048645e-012
-6.475706e-015
-1.495133e-013
-7.431004e-014
-2.651276e-014
-7.980453e-015
-2.115795e-015
-4.968416e-016
-1.003375e-016
-1.518696e-017
-1.976043e-019
1.257372e-018
7.994663e-019
3.736868e-019
1.474754e-019
4.864575e-020
1.203138e-020
1.139568e-021
-9.299236e-022
-7.480078e-022
-1.858057e-022
3.658537e-001
6.620209e-002
6.968641e-003
-1.244400e-003
-1.119960e-003
-4.710944e-004
-1.555500e-004
-4.412542e-005
-1.095199e-005
-2.324180e-006
-3.798051e-007
-2.388966e-008
1.518411e-008
9.298457e-009
3.564649e-009
1.118149e-009
3.044563e-010
7.236034e-011
1.443337e-011
2.048199e-012
-6.764709e-015
-1.496336e-013
-7.431937e-014
-2.647581e-014
-7.938939e-015
-2.086476e-015
-4.810836e-016
-9.378784e-017
-1.330605e-017
-8.426429e-020
9.660168e-019
5.583448e-019
2.505277e-019
1.019825e-019
3.779823e-020
1.208355e-020
2.900417e-021
2.218203e-022
-2.666736e-022
-1.087949e-022
3.658537e-001
6.620209e-002
6.968641e-003
-1.244400e-003
-1.119960e-003
-4.710944e-004
-1.555500e-004
-4.412542e-005
-1.095199e-005
-2.324180e-006
-3.798051e-007
-2.388966e-008
1.518411e-008
9.298457e-009
3.564650e-009
1.118149e-009
3.044566e-010
7.236046e-011
1.443332e-011
2.048075e-012
-6.883362e-015
-1.497090e-013
-7.435027e-014
-2.647804e-014
-7.929406e-015
-2.075867e-015
-4.736203e-016
-8.978264e-017
-1.164068e-017
3.952823e-019
9.956200e-019
4.841503e-019
1.886719e-019
7.014778e-020
2.591522e-020
9.190612e-021
2.879121e-021
6.722950e-022
3.541182e-023
-3.883435e-023
3.658537e-001
6.620209e-002
6.968641e-003
-1.244400e-003
-1.119960e-003
-4.710944e-004
-1.555500e-004
-4.412542e-005
-1.095199e-005
-2.324180e-006
-3.798051e-007
-2.388966e-008
1.518411e-008
9.298457e-009
3.564650e-009
1.118149e-009
3.044568e-010
7.236055e-011
1.443335e-011
2.048060e-012
-6.917164e-015
-1.497405e-013
-7.436995e-014
-2.648598e-014
-7.929940e-015
-2.073410e-015
-4.709093e-016
-8.788231e-017
-1.062228e-017
8.188808e-019
1.117888e-018
4.918522e-019
1.697627e-019
5.427691e-020
1.768920e-020
6.089912e-021
2.109680e-021
6.581048e-022
1.505805e-022
3.087467e-024
3.658537e-001
6.620209e-002
6.968641e-003
-1.244400e-003
-1.119960e-003
-4.710944e-004
-1.555500e-004
-4.412542e-005
-1.095199e-005
-2.324180e-006
-3.798051e-007
-2.388966e-008
1.518411e-008
9.298457e-009
3.564650e-009
1.118149e-009
3.044568e-010
7.236059e-011
1.443337e-011
2.048068e-012
-6.921613e-015
-1.497497e-013
-7.437828e-014
-2.649110e-014
-7.931981e-015
-2.073538e-015
-4.702766e-016
-8.718957e-017
-1.013828e-017
1.077924e-018
1.225667e-018
5.230281e-019
1.717598e-019
4.945406e-020
1.361639e-020
3.964972e-021
1.301353e-021
4.539468e-022
1.447463e-022
1.781166e-023
3.658537e-001
6.620209e-002
6.968641e-003
-1.244400e-003
-1.119960e-003
-4.710944e-004
-1.555500e-004
-4.412542e-005
-1.095199e-005
-2.324180e-006
-3.798051e-007
-2.388966e-008
1.518411e-008
9.298457e-009
3.564650e-009
1.118149e-009
3.044568e-010
7.236060e-011
1.443338e-011
2.048074e-012
-6.919728e-015
-1.497510e-013
-7.438076e-014
-2.649330e-014
-7.933315e-015
-2.074063e-015
-4.703076e-016
-8.702675e-017
-9.961268e-018
1.201223e-018
1.291581e-018
5.504593e-019
1.797095e-019
4.997044e-020
1.238546e-020
2.919632e-021
7.525879e-022
2.434003e-022
9.069290e-023
1.583817e-023
3.658537e-001
6.620209e-002
6.968641e-003
-1.244400e-003
-1.119960e-003
-4.710944e-004
-1.555500e-004
-4.412542e-005
-1.095199e-005
-2.324180e-006
-3.798051e-007
-2.388966e-008
1.518411e-008
9.298457e-009
3.564650e-009
1.118149e-009
3.044568e-010
7.236060e-011
1.443338e-011
2.048077e-012
-6.918001e-015
-1.497505e-013
-7.438114e-014
-2.649397e-014
-7.933895e-015
-2.074410e-015
-4.704425e-016
-8.703426e-017
-9.919399e-018
1.246455e-018
1.322999e-018
5.672363e-019
1.866931e-019
5.199772e-020
1.251864e-020
2.605260e-021
4.842471e-022
1.017163e-022
3.589354e-023
7.751270e-024
3.658537e-001
6.620209e-002
6.968641e-003
-1.244400e-003
-1.119960e-003
-4.710944e-004
-1.555500e-004
-4.412542e-005
-1.095199e-005
-2.324180e-006
-3.798051e-007
-2.388966e-008
1.518411e-008
9.298457e-009
3.564650e-009
1.118149e-009
3.044568e-010
7.236060e-011
1.443339e-011
2.048078e-012
-6.917220e-015
-1.497501e-013
-7.438102e-014
-2.649408e-014
-7.934074e-015
-2.074562e-015
-4.705326e-016
-8.706894e-017
-9.921226e-018
1.257216e-018
1.334558e-018
5.752441e-019
1.909647e-019
5.377610e-020
1.303565e-020
2.639533e-021
4.039109e-022
3.282286e-023
-6.794520e-025
5.704294e-026
3.658537e-001
6.620209e-002
6.968641e-003
-1.244400e-003
-1.119960e-003
-4.710944e-004
-1.555500e-004
-4.412542e-005
-1.095199e-005
-2.324180e-006
-3.798051e-007
-2.388966e-008
1.518411e-008
9.298457e-009
3.564650e-009
1.118149e-009
3.044568e-010
7.236060e-011
1.443339e-011
2.048078e-012
-6.916981e-015
-1.497499e-013
-7.438090e-014
-2.649405e-014
-7.934105e-015
-2.074610e-015
-4.705726e-016
-8.709232e-017
-9.930141e-018
1.256770e-018
1.337322e-018
5.781977e-019
1.930061e-019
5.486400e-020
1.348864e-020
2.771398e-021
4.127138e-022
1.228210e-023
-1.836944e-023
-4.869402e-024
3.658537e-001
6.620209e-002
6.968641e-003
-1.244400e-003
-1.119960e-003
-4.710944e-004
-1.555500e-004
-4.412542e-005
-1.095199e-005
-2.324180e-006
-3.798051e-007
-2.388966e-008
1.518411e-008
9.298457e-009
3.564650e-009
1.118149e-009
3.044568e-010
7.236060e-011
1.443338e-011
2.048078e-012
-6.916940e-015
-1.497498e-013
-7.438084e-014
-2.649402e-014
-7.934098e-015
-2.074619e-015
-4.705854e-016
-8.710284e-017
-9.936209e-018
1.254477e-018
1.337212e-018
5.789074e-019
1.937609e-019
5.538453e-020
1.376578e-020
2.886810e-021
4.463488e-022
1.453914e-023
-2.362407e-023
-7.140991e-024
3.658537e-001
6.620209e-002
6.968641e-003
-1.244400e-003
-1.119960e-003
-4.710944e-004
-1.555500e-004
-4.412542e-005
-1.095199e-005
-2.324180e-006
-3.798051e-007
-2.388966e-008
1.518411e-008
9.298457e-009
3.564650e-009
1.118149e-009
3.044568e-010
7.236060e-011
1.443338e-011
2.048078e-012
-6.916945e-015
-1.497498e-013
-7.438082e-014
-2.649400e-014
-7.934089e-015
-2.074617e-015
-4.705878e-016
-8.710625e-017
-9.938964e-018
1.252904e-018
1.336623e-018
5.788805e-019
1.939430e-019
5.557742e-020
1.389854e-020
2.957431e-021
4.757604e-022
2.311916e-023
-2.304627e-023
-7.744286e-024
3.658537e-001
6.620209e-002
6.968641e-003
-1.244400e-003
-1.119960e-003
-4.710944e-004
-1.555500e-004
-4.412542e-005
-1.095199e-005
-2.324180e-006
-3.798051e-007
-2.388966e-008
1.518411e-008
9.298457e-009
3.564650e-009
1.118149e-009
3.044568e-010
7.236060e-011
1.443338e-011
2.048078e-012
-6.916953e-015
-1.497498e-013
-7.438082e-014
-2.649400e-014
-7.934085e-015
-2.074615e-015
-4.705874e-016
-8.710689e-017
-9.939869e-018
1.252183e-018
1.336215e-018
5.787288e-019
1.939364e-019
5.562416e-020
1.394784e-020
2.991295e-021
4.937602e-022
3.061606e-023
-2.085738e-023
-7.606101e-024
5.380501e-001
4.796082e-002
-7.508467e-003
2.359981e-003
3.877499e-003
1.634231e-003
3.144537e-004
-2.205475e-005
-3.602115e-005
-1.240588e-005
-2.088418e-006
6.968707e-008
1.547610e-007
4.822591e-008
7.175648e-009
-2.516737e-010
-4.175700e-010
-1.006267e-010
-5.340715e-012
4.186521e-012
1.573088e-012
2.385877e-013
-1.984965e-014
-2.222521e-014
-6.998706e-015
-1.370545e-015
-1.612157e-016
-1.684721e-018
4.184534e-018
1.277763e-018
3.788311e-019
1.517699e-019
6.191552e-020
2.131374e-020
5.977212e-021
1.341419e-021
2.201560e-022
1.284469e-023
-8.840492e-024
5.186926e-024
5.819083e-001
1.695570e-001
4.093073e-003
-2.120936e-002
-1.062143e-002
-2.644056e-003
-2.001331e-004
1.168056e-004
5.462088e-005
1.113866e-005
3.715137e-007
-5.238521e-007
-1.843516e-007
-2.823646e-008
1.161618e-009
1.788209e-009
4.650150e-010
4.673310e-011
-9.028844e-012
-4.769813e-012
-9.171548e-013
-3.574892e-014
3.180569e-014
1.033338e-014
1.404366e-015
-7.386614e-017
-8.112041e-017
-1.857170e-017
-1.483151e-018
3.953728e-019
1.672885e-019
2.754381e-020
2.690687e-022
-1.070019e-021
-2.903953e-022
-3.176174e-023
3.586894e-024
2.215661e-024
4.256524e-025
-5.179401e-027
