# vtk DataFile Version 3.0
10.TVD-MUSCLprimescheme,Pe = 1,Grid 41x41,026919.vtk
ASCII
DATASET STRUCTURED_GRID
DIMENSIONS 41 41 1
POINTS 1681 double
0.000000e+00 0.000000e+00 0.0
2.500000e-02 0.000000e+00 0.0
5.000000e-02 0.000000e+00 0.0
7.500000e-02 0.000000e+00 0.0
1.000000e-01 0.000000e+00 0.0
1.250000e-01 0.000000e+00 0.0
1.500000e-01 0.000000e+00 0.0
1.750000e-01 0.000000e+00 0.0
2.000000e-01 0.000000e+00 0.0
2.250000e-01 0.000000e+00 0.0
2.500000e-01 0.000000e+00 0.0
2.750000e-01 0.000000e+00 0.0
3.000000e-01 0.000000e+00 0.0
3.250000e-01 0.000000e+00 0.0
3.500000e-01 0.000000e+00 0.0
3.750000e-01 0.000000e+00 0.0
4.000000e-01 0.000000e+00 0.0
4.250000e-01 0.000000e+00 0.0
4.500000e-01 0.000000e+00 0.0
4.750000e-01 0.000000e+00 0.0
5.000000e-01 0.000000e+00 0.0
5.250000e-01 0.000000e+00 0.0
5.500000e-01 0.000000e+00 0.0
5.750000e-01 0.000000e+00 0.0
6.000000e-01 0.000000e+00 0.0
6.250000e-01 0.000000e+00 0.0
6.500000e-01 0.000000e+00 0.0
6.750000e-01 0.000000e+00 0.0
7.000000e-01 0.000000e+00 0.0
7.250000e-01 0.000000e+00 0.0
7.500000e-01 0.000000e+00 0.0
7.750000e-01 0.000000e+00 0.0
8.000000e-01 0.000000e+00 0.0
8.250000e-01 0.000000e+00 0.0
8.500000e-01 0.000000e+00 0.0
8.750000e-01 0.000000e+00 0.0
9.000000e-01 0.000000e+00 0.0
9.250000e-01 0.000000e+00 0.0
9.500000e-01 0.000000e+00 0.0
9.750000e-01 0.000000e+00 0.0
1.000000e+00 0.000000e+00 0.0
0.000000e+00 2.500000e-02 0.0
2.500000e-02 2.500000e-02 0.0
5.000000e-02 2.500000e-02 0.0
7.500000e-02 2.500000e-02 0.0
1.000000e-01 2.500000e-02 0.0
1.250000e-01 2.500000e-02 0.0
1.500000e-01 2.500000e-02 0.0
1.750000e-01 2.500000e-02 0.0
2.000000e-01 2.500000e-02 0.0
2.250000e-01 2.500000e-02 0.0
2.500000e-01 2.500000e-02 0.0
2.750000e-01 2.500000e-02 0.0
3.000000e-01 2.500000e-02 0.0
3.250000e-01 2.500000e-02 0.0
3.500000e-01 2.500000e-02 0.0
3.750000e-01 2.500000e-02 0.0
4.000000e-01 2.500000e-02 0.0
4.250000e-01 2.500000e-02 0.0
4.500000e-01 2.500000e-02 0.0
4.750000e-01 2.500000e-02 0.0
5.000000e-01 2.500000e-02 0.0
5.250000e-01 2.500000e-02 0.0
5.500000e-01 2.500000e-02 0.0
5.750000e-01 2.500000e-02 0.0
6.000000e-01 2.500000e-02 0.0
6.250000e-01 2.500000e-02 0.0
6.500000e-01 2.500000e-02 0.0
6.750000e-01 2.500000e-02 0.0
7.000000e-01 2.500000e-02 0.0
7.250000e-01 2.500000e-02 0.0
7.500000e-01 2.500000e-02 0.0
7.750000e-01 2.500000e-02 0.0
8.000000e-01 2.500000e-02 0.0
8.250000e-01 2.500000e-02 0.0
8.500000e-01 2.500000e-02 0.0
8.750000e-01 2.500000e-02 0.0
9.000000e-01 2.500000e-02 0.0
9.250000e-01 2.500000e-02 0.0
9.500000e-01 2.500000e-02 0.0
9.750000e-01 2.500000e-02 0.0
1.000000e+00 2.500000e-02 0.0
0.000000e+00 5.000000e-02 0.0
2.500000e-02 5.000000e-02 0.0
5.000000e-02 5.000000e-02 0.0
7.500000e-02 5.000000e-02 0.0
1.000000e-01 5.000000e-02 0.0
1.250000e-01 5.000000e-02 0.0
1.500000e-01 5.000000e-02 0.0
1.750000e-01 5.000000e-02 0.0
2.000000e-01 5.000000e-02 0.0
2.250000e-01 5.000000e-02 0.0
2.500000e-01 5.000000e-02 0.0
2.750000e-01 5.000000e-02 0.0
3.000000e-01 5.000000e-02 0.0
3.250000e-01 5.000000e-02 0.0
3.500000e-01 5.000000e-02 0.0
3.750000e-01 5.000000e-02 0.0
4.000000e-01 5.000000e-02 0.0
4.250000e-01 5.000000e-02 0.0
4.500000e-01 5.000000e-02 0.0
4.750000e-01 5.000000e-02 0.0
5.000000e-01 5.000000e-02 0.0
5.250000e-01 5.000000e-02 0.0
5.500000e-01 5.000000e-02 0.0
5.750000e-01 5.000000e-02 0.0
6.000000e-01 5.000000e-02 0.0
6.250000e-01 5.000000e-02 0.0
6.500000e-01 5.000000e-02 0.0
6.750000e-01 5.000000e-02 0.0
7.000000e-01 5.000000e-02 0.0
7.250000e-01 5.000000e-02 0.0
7.500000e-01 5.000000e-02 0.0
7.750000e-01 5.000000e-02 0.0
8.000000e-01 5.000000e-02 0.0
8.250000e-01 5.000000e-02 0.0
8.500000e-01 5.000000e-02 0.0
8.750000e-01 5.000000e-02 0.0
9.000000e-01 5.000000e-02 0.0
9.250000e-01 5.000000e-02 0.0
9.500000e-01 5.000000e-02 0.0
9.750000e-01 5.000000e-02 0.0
1.000000e+00 5.000000e-02 0.0
0.000000e+00 7.500000e-02 0.0
2.500000e-02 7.500000e-02 0.0
5.000000e-02 7.500000e-02 0.0
7.500000e-02 7.500000e-02 0.0
1.000000e-01 7.500000e-02 0.0
1.250000e-01 7.500000e-02 0.0
1.500000e-01 7.500000e-02 0.0
1.750000e-01 7.500000e-02 0.0
2.000000e-01 7.500000e-02 0.0
2.250000e-01 7.500000e-02 0.0
2.500000e-01 7.500000e-02 0.0
2.750000e-01 7.500000e-02 0.0
3.000000e-01 7.500000e-02 0.0
3.250000e-01 7.500000e-02 0.0
3.500000e-01 7.500000e-02 0.0
3.750000e-01 7.500000e-02 0.0
4.000000e-01 7.500000e-02 0.0
4.250000e-01 7.500000e-02 0.0
4.500000e-01 7.500000e-02 0.0
4.750000e-01 7.500000e-02 0.0
5.000000e-01 7.500000e-02 0.0
5.250000e-01 7.500000e-02 0.0
5.500000e-01 7.500000e-02 0.0
5.750000e-01 7.500000e-02 0.0
6.000000e-01 7.500000e-02 0.0
6.250000e-01 7.500000e-02 0.0
6.500000e-01 7.500000e-02 0.0
6.750000e-01 7.500000e-02 0.0
7.000000e-01 7.500000e-02 0.0
7.250000e-01 7.500000e-02 0.0
7.500000e-01 7.500000e-02 0.0
7.750000e-01 7.500000e-02 0.0
8.000000e-01 7.500000e-02 0.0
8.250000e-01 7.500000e-02 0.0
8.500000e-01 7.500000e-02 0.0
8.750000e-01 7.500000e-02 0.0
9.000000e-01 7.500000e-02 0.0
9.250000e-01 7.500000e-02 0.0
9.500000e-01 7.500000e-02 0.0
9.750000e-01 7.500000e-02 0.0
1.000000e+00 7.500000e-02 0.0
0.000000e+00 1.000000e-01 0.0
2.500000e-02 1.000000e-01 0.0
5.000000e-02 1.000000e-01 0.0
7.500000e-02 1.000000e-01 0.0
1.000000e-01 1.000000e-01 0.0
1.250000e-01 1.000000e-01 0.0
1.500000e-01 1.000000e-01 0.0
1.750000e-01 1.000000e-01 0.0
2.000000e-01 1.000000e-01 0.0
2.250000e-01 1.000000e-01 0.0
2.500000e-01 1.000000e-01 0.0
2.750000e-01 1.000000e-01 0.0
3.000000e-01 1.000000e-01 0.0
3.250000e-01 1.000000e-01 0.0
3.500000e-01 1.000000e-01 0.0
3.750000e-01 1.000000e-01 0.0
4.000000e-01 1.000000e-01 0.0
4.250000e-01 1.000000e-01 0.0
4.500000e-01 1.000000e-01 0.0
4.750000e-01 1.000000e-01 0.0
5.000000e-01 1.000000e-01 0.0
5.250000e-01 1.000000e-01 0.0
5.500000e-01 1.000000e-01 0.0
5.750000e-01 1.000000e-01 0.0
6.000000e-01 1.000000e-01 0.0
6.250000e-01 1.000000e-01 0.0
6.500000e-01 1.000000e-01 0.0
6.750000e-01 1.000000e-01 0.0
7.000000e-01 1.000000e-01 0.0
7.250000e-01 1.000000e-01 0.0
7.500000e-01 1.000000e-01 0.0
7.750000e-01 1.000000e-01 0.0
8.000000e-01 1.000000e-01 0.0
8.250000e-01 1.000000e-01 0.0
8.500000e-01 1.000000e-01 0.0
8.750000e-01 1.000000e-01 0.0
9.000000e-01 1.000000e-01 0.0
9.250000e-01 1.000000e-01 0.0
9.500000e-01 1.000000e-01 0.0
9.750000e-01 1.000000e-01 0.0
1.000000e+00 1.000000e-01 0.0
0.000000e+00 1.250000e-01 0.0
2.500000e-02 1.250000e-01 0.0
5.000000e-02 1.250000e-01 0.0
7.500000e-02 1.250000e-01 0.0
1.000000e-01 1.250000e-01 0.0
1.250000e-01 1.250000e-01 0.0
1.500000e-01 1.250000e-01 0.0
1.750000e-01 1.250000e-01 0.0
2.000000e-01 1.250000e-01 0.0
2.250000e-01 1.250000e-01 0.0
2.500000e-01 1.250000e-01 0.0
2.750000e-01 1.250000e-01 0.0
3.000000e-01 1.250000e-01 0.0
3.250000e-01 1.250000e-01 0.0
3.500000e-01 1.250000e-01 0.0
3.750000e-01 1.250000e-01 0.0
4.000000e-01 1.250000e-01 0.0
4.250000e-01 1.250000e-01 0.0
4.500000e-01 1.250000e-01 0.0
4.750000e-01 1.250000e-01 0.0
5.000000e-01 1.250000e-01 0.0
5.250000e-01 1.250000e-01 0.0
5.500000e-01 1.250000e-01 0.0
5.750000e-01 1.250000e-01 0.0
6.000000e-01 1.250000e-01 0.0
6.250000e-01 1.250000e-01 0.0
6.500000e-01 1.250000e-01 0.0
6.750000e-01 1.250000e-01 0.0
7.000000e-01 1.250000e-01 0.0
7.250000e-01 1.250000e-01 0.0
7.500000e-01 1.250000e-01 0.0
7.750000e-01 1.250000e-01 0.0
8.000000e-01 1.250000e-01 0.0
8.250000e-01 1.250000e-01 0.0
8.500000e-01 1.250000e-01 0.0
8.750000e-01 1.250000e-01 0.0
9.000000e-01 1.250000e-01 0.0
9.250000e-01 1.250000e-01 0.0
9.500000e-01 1.250000e-01 0.0
9.750000e-01 1.250000e-01 0.0
1.000000e+00 1.250000e-01 0.0
0.000000e+00 1.500000e-01 0.0
2.500000e-02 1.500000e-01 0.0
5.000000e-02 1.500000e-01 0.0
7.500000e-02 1.500000e-01 0.0
1.000000e-01 1.500000e-01 0.0
1.250000e-01 1.500000e-01 0.0
1.500000e-01 1.500000e-01 0.0
1.750000e-01 1.500000e-01 0.0
2.000000e-01 1.500000e-01 0.0
2.250000e-01 1.500000e-01 0.0
2.500000e-01 1.500000e-01 0.0
2.750000e-01 1.500000e-01 0.0
3.000000e-01 1.500000e-01 0.0
3.250000e-01 1.500000e-01 0.0
3.500000e-01 1.500000e-01 0.0
3.750000e-01 1.500000e-01 0.0
4.000000e-01 1.500000e-01 0.0
4.250000e-01 1.500000e-01 0.0
4.500000e-01 1.500000e-01 0.0
4.750000e-01 1.500000e-01 0.0
5.000000e-01 1.500000e-01 0.0
5.250000e-01 1.500000e-01 0.0
5.500000e-01 1.500000e-01 0.0
5.750000e-01 1.500000e-01 0.0
6.000000e-01 1.500000e-01 0.0
6.250000e-01 1.500000e-01 0.0
6.500000e-01 1.500000e-01 0.0
6.750000e-01 1.500000e-01 0.0
7.000000e-01 1.500000e-01 0.0
7.250000e-01 1.500000e-01 0.0
7.500000e-01 1.500000e-01 0.0
7.750000e-01 1.500000e-01 0.0
8.000000e-01 1.500000e-01 0.0
8.250000e-01 1.500000e-01 0.0
8.500000e-01 1.500000e-01 0.0
8.750000e-01 1.500000e-01 0.0
9.000000e-01 1.500000e-01 0.0
9.250000e-01 1.500000e-01 0.0
9.500000e-01 1.500000e-01 0.0
9.750000e-01 1.500000e-01 0.0
1.000000e+00 1.500000e-01 0.0
0.000000e+00 1.750000e-01 0.0
2.500000e-02 1.750000e-01 0.0
5.000000e-02 1.750000e-01 0.0
7.500000e-02 1.750000e-01 0.0
1.000000e-01 1.750000e-01 0.0
1.250000e-01 1.750000e-01 0.0
1.500000e-01 1.750000e-01 0.0
1.750000e-01 1.750000e-01 0.0
2.000000e-01 1.750000e-01 0.0
2.250000e-01 1.750000e-01 0.0
2.500000e-01 1.750000e-01 0.0
2.750000e-01 1.750000e-01 0.0
3.000000e-01 1.750000e-01 0.0
3.250000e-01 1.750000e-01 0.0
3.500000e-01 1.750000e-01 0.0
3.750000e-01 1.750000e-01 0.0
4.000000e-01 1.750000e-01 0.0
4.250000e-01 1.750000e-01 0.0
4.500000e-01 1.750000e-01 0.0
4.750000e-01 1.750000e-01 0.0
5.000000e-01 1.750000e-01 0.0
5.250000e-01 1.750000e-01 0.0
5.500000e-01 1.750000e-01 0.0
5.750000e-01 1.750000e-01 0.0
6.000000e-01 1.750000e-01 0.0
6.250000e-01 1.750000e-01 0.0
6.500000e-01 1.750000e-01 0.0
6.750000e-01 1.750000e-01 0.0
7.000000e-01 1.750000e-01 0.0
7.250000e-01 1.750000e-01 0.0
7.500000e-01 1.750000e-01 0.0
7.750000e-01 1.750000e-01 0.0
8.000000e-01 1.750000e-01 0.0
8.250000e-01 1.750000e-01 0.0
8.500000e-01 1.750000e-01 0.0
8.750000e-01 1.750000e-01 0.0
9.000000e-01 1.750000e-01 0.0
9.250000e-01 1.750000e-01 0.0
9.500000e-01 1.750000e-01 0.0
9.750000e-01 1.750000e-01 0.0
1.000000e+00 1.750000e-01 0.0
[...]
CELL_DATA 1600
SCALARS Temperature double 1
LOOKUP_TABLE default
5.000000e-01
2.260923e-01
1.327039e-01
9.210360e-02
7.034451e-02
5.684526e-02
4.763114e-02
4.092841e-02
3.582897e-02
3.181802e-02
2.858101e-02
2.591453e-02
2.368106e-02
2.178430e-02
2.015473e-02
1.874099e-02
1.750427e-02
1.641473e-02
1.544910e-02
1.458892e-02
1.381944e-02
1.312872e-02
1.250699e-02
1.194626e-02
1.143989e-02
1.098236e-02
1.056907e-02
1.019619e-02
9.860487e-03
9.559286e-03
9.290352e-03
9.051846e-03
8.842273e-03
8.660439e-03
8.505427e-03
8.376571e-03
8.273440e-03
8.195824e-03
8.143731e-03
8.117383e-03
7.739077e-01
5.000000e-01
3.474480e-01
2.590973e-01
2.041145e-01
1.673931e-01
1.413754e-01
1.220588e-01
1.071816e-01
9.538652e-02
8.581497e-02
7.789901e-02
7.124878e-02
6.558811e-02
6.071610e-02
5.648321e-02
5.277597e-02
4.950677e-02
4.660697e-02
4.402211e-02
4.170844e-02
3.963054e-02
3.775942e-02
3.607124e-02
3.454621e-02
3.316791e-02
3.192259e-02
3.079876e-02
2.978681e-02
2.887871e-02
2.806778e-02
2.734852e-02
2.671643e-02
2.616797e-02
2.570037e-02
2.531164e-02
2.500051e-02
2.476634e-02
2.460917e-02
2.452968e-02
8.672961e-01
6.525520e-01
5.000000e-01
3.949970e-01
3.217714e-01
2.691895e-01
2.301804e-01
2.003422e-01
1.768987e-01
1.580530e-01
1.426068e-01
1.297378e-01
1.188656e-01
1.095706e-01
1.015427e-01
9.454844e-02
8.840866e-02
8.298407e-02
7.816477e-02
7.386311e-02
7.000837e-02
6.654304e-02
6.341994e-02
6.060010e-02
5.805119e-02
5.574624e-02
5.366266e-02
5.178157e-02
5.008712e-02
4.856607e-02
4.720739e-02
4.600199e-02
4.494249e-02
4.402297e-02
4.323891e-02
4.258703e-02
4.206521e-02
4.167244e-02
4.140881e-02
4.127547e-02
9.078964e-01
7.409027e-01
6.050030e-01
5.000000e-01
4.200009e-01
3.587260e-01
3.111214e-01
2.734896e-01
2.432123e-01
2.184454e-01
1.978803e-01
1.805755e-01
1.658424e-01
1.531695e-01
1.421706e-01
1.325494e-01
1.240758e-01
1.165687e-01
1.098839e-01
1.039055e-01
9.853926e-02
9.370821e-02
8.934888e-02
8.540864e-02
8.184364e-02
7.861721e-02
7.569859e-02
7.306196e-02
7.068563e-02
6.855146e-02
6.664433e-02
6.495174e-02
6.346354e-02
6.217163e-02
6.106979e-02
6.015353e-02
5.941997e-02
5.886777e-02
5.849709e-02
5.830959e-02
9.296555e-01
7.958855e-01
6.782286e-01
5.799991e-01
5.000000e-01
4.353437e-01
3.829650e-01
3.402064e-01
3.049467e-01
2.755527e-01
2.507837e-01
2.296991e-01
2.115823e-01
1.958831e-01
1.821753e-01
1.701249e-01
1.594680e-01
1.499938e-01
1.415327e-01
1.339468e-01
1.271230e-01
1.209685e-01
1.154060e-01
1.103713e-01
1.058105e-01
1.016785e-01
9.793726e-02
9.455470e-02
9.150392e-02
8.876231e-02
8.631101e-02
8.413446e-02
8.221994e-02
8.055737e-02
7.913898e-02
7.795920e-02
7.701448e-02
7.630322e-02
7.582572e-02
7.558416e-02
9.431547e-01
8.326069e-01
7.308105e-01
6.412740e-01
5.646563e-01
5.000000e-01
4.456980e-01
4.000470e-01
3.614999e-01
3.287483e-01
3.007247e-01
2.765727e-01
2.556103e-01
2.372947e-01
2.211927e-01
2.069568e-01
1.943067e-01
1.830149e-01
1.728957e-01
1.637962e-01
1.555901e-01
1.481725e-01
1.414555e-01
1.353656e-01
1.298410e-01
1.248292e-01
1.202863e-01
1.161749e-01
1.124635e-01
1.091257e-01
1.061393e-01
1.034861e-01
1.011512e-01
9.912271e-02
9.739149e-02
9.595108e-02
9.479738e-02
9.392862e-02
9.334531e-02
9.305021e-02
9.523689e-01
8.586246e-01
7.698196e-01
6.888785e-01
6.170350e-01
5.543020e-01
5.000000e-01
4.531519e-01
4.127227e-01
3.777422e-01
3.473565e-01
3.208385e-01
2.975811e-01
2.770823e-01
2.589282e-01
2.427783e-01
2.283517e-01
2.154161e-01
2.037789e-01
1.932794e-01
1.837834e-01
1.751782e-01
1.673686e-01
1.602745e-01
1.538280e-01
1.479712e-01
1.426554e-01
1.378390e-01
1.334868e-01
1.295692e-01
1.260614e-01
1.229428e-01
1.201967e-01
1.178098e-01
1.157719e-01
1.140756e-01
1.127167e-01
1.116931e-01
1.110058e-01
1.106580e-01
9.590716e-01
8.779412e-01
7.996577e-01
7.265104e-01
6.597936e-01
5.999529e-01
5.468480e-01
5.000000e-01
4.587751e-01
4.225018e-01
3.905372e-01
3.622980e-01
3.372718e-01
3.150175e-01
2.951589e-01
2.773777e-01
2.614051e-01
2.470142e-01
2.340137e-01
2.222417e-01
2.115610e-01
2.018554e-01
1.930258e-01
1.849880e-01
1.776702e-01
1.710109e-01
1.649577e-01
1.594661e-01
1.544982e-01
1.500219e-01
1.460103e-01
1.424412e-01
1.392962e-01
1.365610e-01
1.342246e-01
1.322792e-01
1.307201e-01
1.295455e-01
1.287566e-01
1.283574e-01
9.641710e-01
8.928184e-01
8.231012e-01
7.567877e-01
6.950533e-01
6.385001e-01
5.872773e-01
5.412249e-01
5.000000e-01
4.631709e-01
4.302802e-01
4.008827e-01
3.745655e-01
3.509571e-01
3.297297e-01
3.105970e-01
2.933115e-01
2.776598e-01
2.634583e-01
2.505494e-01
2.387979e-01
2.280875e-01
2.183184e-01
2.094049e-01
2.012732e-01
1.938599e-01
1.871106e-01
1.809788e-01
1.754249e-01
1.704150e-01
1.659209e-01
1.619190e-01
1.583903e-01
1.553194e-01
1.526948e-01
1.505085e-01
1.487557e-01
1.474348e-01
1.465475e-01
1.460985e-01
9.681820e-01
9.046135e-01
8.419470e-01
7.815546e-01
7.244473e-01
6.712516e-01
6.222577e-01
5.774981e-01
5.368291e-01
5.000000e-01
4.667055e-01
4.366221e-01
4.094308e-01
3.848306e-01
3.625458e-01
3.423280e-01
3.239565e-01
3.072366e-01
2.919978e-01
2.780912e-01
2.653870e-01
2.537725e-01
2.431497e-01
2.334336e-01
2.245504e-01
2.164365e-01
2.090368e-01
2.023039e-01
1.961972e-01
1.906823e-01
1.857300e-01
1.813162e-01
1.774210e-01
1.740290e-01
1.711282e-01
1.687107e-01
1.667719e-01
1.653103e-01
1.643283e-01
1.638313e-01
9.714190e-01
9.141850e-01
8.573932e-01
8.021196e-01
7.492163e-01
6.992753e-01
6.526435e-01
6.094628e-01
5.697198e-01
5.332944e-01
5.000000e-01
4.696141e-01
4.419008e-01
4.166254e-01
3.935635e-01
3.725061e-01
3.532622e-01
3.356594e-01
3.195433e-01
3.047771e-01
2.912393e-01
2.788233e-01
2.674351e-01
2.569926e-01
2.474237e-01
2.386659e-01
2.306646e-01
2.233727e-01
2.167498e-01
2.107611e-01
2.053774e-01
2.005744e-01
1.963323e-01
1.926354e-01
1.894721e-01
1.868344e-01
1.847180e-01
1.831222e-01
1.820497e-01
1.815068e-01
9.740855e-01
9.221010e-01
8.702622e-01
8.194245e-01
7.703009e-01
7.234273e-01
6.791615e-01
6.377020e-01
5.991173e-01
5.633778e-01
5.303859e-01
5.000000e-01
4.720544e-01
4.463730e-01
4.227794e-01
4.011030e-01
3.811830e-01
3.628706e-01
3.460298e-01
3.305374e-01
3.162828e-01
3.031671e-01
2.911024e-01
2.800108e-01
2.698236e-01
2.604805e-01
2.519287e-01
2.441222e-01
2.370213e-01
2.305921e-01
2.248057e-01
2.196382e-01
2.150701e-01
2.110862e-01
2.076750e-01
2.048291e-01
2.025447e-01
2.008216e-01
1.996633e-01
1.990769e-01
9.763189e-01
9.287512e-01
8.811344e-01
8.341576e-01
7.884177e-01
7.443897e-01
7.024188e-01
6.627281e-01
6.254345e-01
5.905692e-01
5.580992e-01
5.279456e-01
5.000000e-01
4.741365e-01
4.502213e-01
4.281196e-01
4.076998e-01
3.888366e-01
3.714130e-01
3.553209e-01
3.404615e-01
3.267451e-01
3.140912e-01
3.024274e-01
2.916894e-01
2.818203e-01
2.727699e-01
2.644942e-01
2.569552e-01
2.501200e-01
2.439610e-01
2.384549e-01
2.335830e-01
2.293308e-01
2.256874e-01
2.226461e-01
2.202038e-01
2.183609e-01
2.171218e-01
2.164944e-01
9.782157e-01
9.344119e-01
8.904294e-01
8.468305e-01
8.041168e-01
7.627052e-01
7.229177e-01
6.849825e-01
6.490428e-01
6.151693e-01
5.833745e-01
5.536270e-01
5.258635e-01
5.000000e-01
4.759396e-01
4.535794e-01
4.328150e-01
4.135437e-01
3.956672e-01
3.790927e-01
3.637339e-01
3.495112e-01
3.363522e-01
3.241911e-01
3.129688e-01
3.026325e-01
2.931355e-01
2.844365e-01
2.764995e-01
2.692937e-01
2.627928e-01
2.569748e-01
2.518221e-01
2.473211e-01
2.434619e-01
2.402386e-01
2.376489e-01
2.356942e-01
2.343795e-01
2.337137e-01
9.798453e-01
9.392839e-01
8.984573e-01
8.578294e-01
8.178247e-01
7.788073e-01
7.410717e-01
7.048411e-01
6.702703e-01
6.374541e-01
6.064364e-01
5.772206e-01
5.497786e-01
5.240603e-01
5.000000e-01
4.775224e-01
4.565477e-01
4.369942e-01
4.187815e-01
4.018317e-01
3.860711e-01
3.714306e-01
3.578464e-01
3.452597e-01
3.336173e-01
3.228713e-01
3.129788e-01
3.039018e-01
2.956071e-01
2.880661e-01
2.812542e-01
2.751513e-01
2.697412e-01
2.650113e-01
2.609531e-01
2.575616e-01
2.548355e-01
2.527770e-01
2.513922e-01
2.506908e-01
9.812590e-01
9.435168e-01
9.054515e-01
8.674506e-01
8.298751e-01
7.930432e-01
7.572216e-01
7.226222e-01
6.894029e-01
6.576719e-01
6.274938e-01
5.988970e-01
5.718803e-01
5.464205e-01
5.224775e-01
5.000000e-01
4.789294e-01
4.592031e-01
4.407574e-01
4.235286e-01
4.074553e-01
3.924787e-01
3.785438e-01
3.655993e-01
3.535981e-01
3.424975e-01
3.322590e-01
3.228483e-01
3.142353e-01
3.063939e-01
2.993020e-01
2.929412e-01
2.872970e-01
2.823584e-01
2.781180e-01
2.745722e-01
2.717207e-01
2.695667e-01
2.681173e-01
2.673830e-01
9.824957e-01
9.472240e-01
9.115913e-01
8.759242e-01
8.405320e-01
8.056933e-01
7.716483e-01
7.385949e-01
7.066884e-01
6.760435e-01
6.467377e-01
6.188170e-01
5.923002e-01
5.671849e-01
5.434522e-01
5.210705e-01
4.999999e-01
4.801947e-01
4.616059e-01
4.441835e-01
4.278775e-01
4.126393e-01
3.984224e-01
3.851831e-01
3.728807e-01
3.614779e-01
3.509407e-01
3.412389e-01
3.323458e-01
3.242382e-01
3.168963e-01
3.103042e-01
3.044490e-01
2.993216e-01
2.949160e-01
2.912297e-01
2.882638e-01
2.860226e-01
2.845141e-01
2.837498e-01
9.835853e-01
9.504932e-01
9.170159e-01
8.834313e-01
8.500061e-01
8.169850e-01
7.845838e-01
7.529857e-01
7.223402e-01
6.927634e-01
6.643406e-01
6.371293e-01
6.111633e-01
5.864562e-01
5.630057e-01
5.407968e-01
5.198052e-01
4.999999e-01
4.813456e-01
4.638041e-01
4.473365e-01
4.319035e-01
4.174672e-01
4.039911e-01
3.914409e-01
3.797848e-01
3.689936e-01
3.590413e-01
3.499046e-01
3.415634e-01
3.340009e-01
3.272032e-01
3.211597e-01
3.158629e-01
3.113085e-01
3.074955e-01
3.044261e-01
3.021059e-01
3.005438e-01
2.997522e-01
9.845509e-01
9.533930e-01
9.218352e-01
8.901160e-01
8.584672e-01
8.271043e-01
7.962210e-01
7.659862e-01
7.365417e-01
7.080022e-01
6.804566e-01
6.539701e-01
6.285869e-01
6.043327e-01
5.812184e-01
5.592425e-01
5.383939e-01
5.186543e-01
4.999999e-01
4.824038e-01
4.658366e-01
4.502684e-01
4.356688e-01
4.220086e-01
4.092596e-01
3.973954e-01
3.863919e-01
3.762270e-01
3.668813e-01
3.583378e-01
3.505825e-01
3.436040e-01
3.373939e-01
3.319466e-01
3.272596e-01
3.233332e-01
3.201710e-01
3.177797e-01
3.161693e-01
3.153532e-01
9.854111e-01
9.559779e-01
9.261369e-01
8.960945e-01
8.660532e-01
8.362038e-01
8.067205e-01
7.777583e-01
7.494506e-01
7.219088e-01
6.952229e-01
6.694625e-01
6.446790e-01
6.209072e-01
5.981682e-01
5.764713e-01
5.558164e-01
5.361957e-01
5.175961e-01
4.999999e-01
4.833870e-01
4.677354e-01
4.530224e-01
4.392253e-01
4.263219e-01
4.142912e-01
4.031138e-01
3.927717e-01
3.832492e-01
3.745327e-01
3.666110e-01
3.594753e-01
3.531194e-01
3.475397e-01
3.427354e-01
3.387084e-01
3.354637e-01
3.330091e-01
3.313557e-01
3.305175e-01
9.861806e-01
9.582915e-01
9.299916e-01
9.014607e-01
8.728769e-01
8.444098e-01
8.162165e-01
7.884390e-01
7.612021e-01
7.346129e-01
7.087606e-01
6.837171e-01
6.595384e-01
6.362660e-01
6.139288e-01
5.925446e-01
5.721224e-01
5.526634e-01
5.341632e-01
5.166128e-01
4.999999e-01
4.843100e-01
4.695272e-01
4.556350e-01
4.426170e-01
4.304573e-01
4.191408e-01
4.086539e-01
3.989846e-01
3.901223e-01
3.820590e-01
3.747882e-01
3.683060e-01
3.626111e-01
3.577041e-01
3.535888e-01
3.502714e-01
3.477609e-01
3.460694e-01
3.452118e-01
9.868713e-01
9.603694e-01
9.334569e-01
9.062918e-01
8.790315e-01
8.518275e-01
8.248218e-01
7.981446e-01
7.719124e-01
7.462274e-01
7.211766e-01
6.968328e-01
6.732548e-01
6.504887e-01
6.285693e-01
6.075212e-01
5.873606e-01
5.680963e-01
5.497315e-01
5.322644e-01
5.156898e-01
4.999999e-01
4.851850e-01
4.712344e-01
4.581370e-01
4.458816e-01
4.344577e-01
4.238555e-01
4.140666e-01
4.050837e-01
3.969014e-01
3.895161e-01
3.829261e-01
3.771319e-01
3.721362e-01
3.679441e-01
3.645632e-01
3.620039e-01
3.602789e-01
3.594043e-01
9.874930e-01
9.622406e-01
9.365800e-01
9.106511e-01
8.845939e-01
8.585444e-01
8.326313e-01
8.069741e-01
7.816815e-01
7.568502e-01
7.325648e-01
7.088975e-01
6.859087e-01
6.636477e-01
6.421535e-01
6.214561e-01
6.015774e-01
5.825326e-01
5.643311e-01
5.469774e-01
5.304726e-01
5.148148e-01
4.999999e-01
4.860225e-01
4.728763e-01
4.605548e-01
4.490515e-01
4.383605e-01
4.284767e-01
4.193960e-01
4.111158e-01
4.036349e-01
3.969539e-01
3.910753e-01
3.860037e-01
3.817455e-01
3.783099e-01
3.757082e-01
3.739543e-01
3.730649e-01
9.880537e-01
9.639288e-01
9.393999e-01
9.145913e-01
8.896287e-01
8.646343e-01
8.397254e-01
8.150119e-01
7.905950e-01
7.665663e-01
7.430074e-01
7.199891e-01
6.975725e-01
6.758088e-01
6.547402e-01
6.344006e-01
6.148167e-01
5.960087e-01
5.779913e-01
5.607745e-01
5.443648e-01
5.287654e-01
5.139773e-01
4.999999e-01
4.868314e-01
4.744694e-01
4.629114e-01
4.521550e-01
4.421983e-01
4.330404e-01
4.246811e-01
4.171219e-01
4.103654e-01
4.044162e-01
3.992804e-01
3.949662e-01
3.914838e-01
3.888459e-01
3.870672e-01
3.861650e-01
9.885601e-01
9.654538e-01
9.419488e-01
9.181563e-01
8.941894e-01
8.701590e-01
8.461720e-01
8.223298e-01
7.987267e-01
7.754495e-01
7.525762e-01
7.301763e-01
7.083105e-01
6.870311e-01
6.663825e-01
6.464018e-01
6.271191e-01
6.085589e-01
5.907403e-01
5.736779e-01
5.573828e-01
5.418628e-01
5.271235e-01
5.131684e-01
4.999999e-01
4.876194e-01
4.760281e-01
4.652267e-01
4.552167e-01
4.459997e-01
4.375784e-01
4.299563e-01
4.231383e-01
4.171308e-01
4.119417e-01
4.075805e-01
4.040588e-01
4.013903e-01
3.995905e-01
3.986775e-01
9.890176e-01
9.668321e-01
9.442537e-01
9.213828e-01
8.983214e-01
8.751707e-01
8.520287e-01
8.289891e-01
8.061400e-01
7.835634e-01
7.613340e-01
7.395194e-01
7.181796e-01
6.973673e-01
6.771285e-01
6.575024e-01
6.385220e-01
6.202150e-01
6.026044e-01
5.857086e-01
5.695425e-01
5.541182e-01
5.394450e-01
5.255304e-01
5.123803e-01
4.999999e-01
4.883933e-01
4.775648e-01
4.675183e-01
4.582582e-01
4.497897e-01
4.421186e-01
4.352517e-01
4.291971e-01
4.239643e-01
4.195644e-01
4.160100e-01
4.133159e-01
4.114985e-01
4.105764e-01
9.894309e-01
9.680774e-01
9.463373e-01
9.243014e-01
9.020627e-01
8.797137e-01
8.573445e-01
8.350422e-01
8.128893e-01
7.909632e-01
7.693353e-01
7.480712e-01
7.272300e-01
7.068644e-01
6.870211e-01
6.677409e-01
6.490591e-01
6.310062e-01
6.136079e-01
5.968861e-01
5.808590e-01
5.655421e-01
5.509483e-01
5.370884e-01
5.239717e-01
5.116064e-01
4.999999e-01
4.891590e-01
4.790905e-01
4.698012e-01
4.612986e-01
4.535904e-01
4.466855e-01
4.405937e-01
4.353260e-01
4.308947e-01
4.273137e-01
4.245985e-01
4.227666e-01
4.218371e-01
9.898038e-01
9.692012e-01
9.482184e-01
9.269380e-01
9.054453e-01
8.838251e-01
8.621609e-01
8.405338e-01
8.190211e-01
7.976961e-01
7.766272e-01
7.558777e-01
7.355056e-01
7.155634e-01
6.960980e-01
6.771515e-01
6.587609e-01
6.409586e-01
6.237728e-01
6.072282e-01
5.913459e-01
5.761443e-01
5.616393e-01
5.478448e-01
5.347730e-01
5.224350e-01
5.108408e-01
4.999999e-01
4.899215e-01
4.806147e-01
4.720891e-01
4.643543e-01
4.574211e-01
4.513007e-01
4.460056e-01
4.415494e-01
4.379470e-01
4.352149e-01
4.333712e-01
4.324356e-01
9.901395e-01
9.702132e-01
9.499129e-01
9.293143e-01
9.084960e-01
8.875365e-01
8.665131e-01
8.455017e-01
8.245751e-01
8.038027e-01
7.832501e-01
7.629786e-01
7.430447e-01
7.235003e-01
7.043927e-01
6.857646e-01
6.676540e-01
6.500953e-01
6.331185e-01
6.167506e-01
6.010152e-01
5.859332e-01
5.715231e-01
5.578014e-01
5.447831e-01
5.324815e-01
5.209093e-01
5.100783e-01
4.999999e-01
4.906853e-01
4.821460e-01
4.743935e-01
4.674401e-01
4.612985e-01
4.559826e-01
4.515072e-01
4.478881e-01
4.451426e-01
4.432895e-01
4.423491e-01
9.904407e-01
9.711213e-01
9.514339e-01
9.314485e-01
9.112377e-01
8.908743e-01
8.704307e-01
8.499780e-01
8.295849e-01
8.093176e-01
7.892388e-01
7.694078e-01
7.498798e-01
7.307061e-01
7.119338e-01
6.936059e-01
6.757617e-01
6.584364e-01
6.416620e-01
6.254671e-01
6.098774e-01
5.949161e-01
5.806038e-01
5.669594e-01
5.540001e-01
5.417415e-01
5.301985e-01
5.193850e-01
5.093144e-01
4.999999e-01
4.914545e-01
4.836916e-01
4.767248e-01
4.705684e-01
4.652373e-01
4.607474e-01
4.571156e-01
4.543598e-01
4.524994e-01
4.515552e-01
9.907096e-01
9.719322e-01
9.527926e-01
9.333556e-01
9.136889e-01
8.938606e-01
8.739385e-01
8.539896e-01
8.340790e-01
8.142699e-01
7.946225e-01
7.751942e-01
7.560389e-01
7.372071e-01
7.187457e-01
7.006979e-01
6.831035e-01
6.659989e-01
6.494173e-01
6.333888e-01
6.179408e-01
6.030983e-01
5.888840e-01
5.753187e-01
5.624214e-01
5.502100e-01
5.387012e-01
5.279107e-01
5.178537e-01
5.085452e-01
4.999999e-01
4.922324e-01
4.852579e-01
4.790918e-01
4.737502e-01
4.692499e-01
4.656086e-01
4.628451e-01
4.609793e-01
4.600322e-01
9.909481e-01
9.726515e-01
9.539980e-01
9.350482e-01
9.158655e-01
8.965138e-01
8.770571e-01
8.575588e-01
8.380809e-01
8.186837e-01
7.994255e-01
7.803617e-01
7.615450e-01
7.430251e-01
7.248485e-01
7.070586e-01
6.896956e-01
6.727966e-01
6.563958e-01
6.405245e-01
6.252116e-01
6.104836e-01
5.963649e-01
5.828779e-01
5.700435e-01
5.578812e-01
5.464093e-01
5.356454e-01
5.256062e-01
5.163081e-01
5.077673e-01
4.999999e-01
4.930220e-01
4.868504e-01
4.815020e-01
4.769947e-01
4.733468e-01
4.705777e-01
4.687078e-01
4.677586e-01
9.911577e-01
9.732836e-01
9.550575e-01
9.365364e-01
9.177800e-01
8.988487e-01
8.798032e-01
8.607037e-01
8.416096e-01
8.225789e-01
8.036676e-01
7.849297e-01
7.664168e-01
7.481778e-01
7.302587e-01
7.127029e-01
6.955508e-01
6.788401e-01
6.626059e-01
6.468804e-01
6.316937e-01
6.170736e-01
6.030458e-01
5.896343e-01
5.768614e-01
5.647481e-01
5.533142e-01
5.425786e-01
5.325596e-01
5.232749e-01
5.147418e-01
5.069777e-01
4.999998e-01
4.938259e-01
4.884738e-01
4.839620e-01
4.803097e-01
4.775368e-01
4.756640e-01
4.747133e-01
9.913396e-01
9.738320e-01
9.559770e-01
9.378283e-01
9.194426e-01
9.008772e-01
8.821901e-01
8.634389e-01
8.446805e-01
8.259709e-01
8.073645e-01
7.889137e-01
7.706691e-01
7.526788e-01
7.349885e-01
7.176415e-01
7.006782e-01
6.841369e-01
6.680532e-01
6.524601e-01
6.373887e-01
6.228679e-01
6.089244e-01
5.955836e-01
5.828689e-01
5.708027e-01
5.594060e-01
5.486990e-01
5.387012e-01
5.294313e-01
5.209079e-01
5.131493e-01
5.061738e-01
4.999998e-01
4.946462e-01
4.901320e-01
4.864770e-01
4.837016e-01
4.818270e-01
4.808752e-01
9.914946e-01
9.742996e-01
9.567611e-01
9.389302e-01
9.208610e-01
9.026084e-01
8.842281e-01
8.657753e-01
8.473051e-01
8.288717e-01
8.105278e-01
7.923249e-01
7.743125e-01
7.565380e-01
7.390467e-01
7.218818e-01
7.050839e-01
6.886913e-01
6.727402e-01
6.572644e-01
6.422956e-01
6.278636e-01
6.139961e-01
6.007194e-01
5.880580e-01
5.760354e-01
5.646737e-01
5.539941e-01
5.440171e-01
5.347624e-01
5.262495e-01
5.184976e-01
5.115259e-01
5.053535e-01
4.999998e-01
4.954847e-01
4.918283e-01
4.890514e-01
4.871757e-01
4.862232e-01
9.916234e-01
9.746883e-01
9.574129e-01
9.398464e-01
9.220408e-01
9.040489e-01
8.859243e-01
8.677207e-01
8.494914e-01
8.312891e-01
8.131655e-01
7.951708e-01
7.773537e-01
7.597612e-01
7.424382e-01
7.254276e-01
7.087701e-01
6.925043e-01
6.766666e-01
6.612914e-01
6.464109e-01
6.320557e-01
6.182542e-01
6.050336e-01
5.924192e-01
5.804354e-01
5.691051e-01
5.584503e-01
5.484925e-01
5.392523e-01
5.307498e-01
5.230050e-01
5.160377e-01
5.098677e-01
5.045150e-01
4.999998e-01
4.963429e-01
4.935653e-01
4.916889e-01
4.907361e-01
9.917266e-01
9.749995e-01
9.579348e-01
9.405800e-01
9.229855e-01
9.052026e-01
8.872833e-01
8.692798e-01
8.512442e-01
8.332280e-01
8.152819e-01
7.974552e-01
7.797961e-01
7.623509e-01
7.451644e-01
7.282792e-01
7.117360e-01
6.955737e-01
6.798288e-01
6.645361e-01
6.497283e-01
6.354365e-01
6.216898e-01
6.085159e-01
5.959409e-01
5.839897e-01
5.726860e-01
5.620527e-01
5.521116e-01
5.428841e-01
5.343911e-01
5.266529e-01
5.196900e-01
5.135227e-01
5.081714e-01
5.036568e-01
4.999998e-01
4.972220e-01
4.953453e-01
4.943923e-01
9.918042e-01
9.752336e-01
9.583275e-01
9.411322e-01
9.236967e-01
9.060713e-01
8.883068e-01
8.704544e-01
8.525651e-01
8.346895e-01
8.168777e-01
7.991783e-01
7.816389e-01
7.643056e-01
7.472229e-01
7.304331e-01
7.139772e-01
6.978939e-01
6.822200e-01
6.669907e-01
6.522388e-01
6.379959e-01
6.242915e-01
6.111538e-01
5.986095e-01
5.866838e-01
5.754012e-01
5.647848e-01
5.548571e-01
5.456399e-01
5.371546e-01
5.294220e-01
5.224629e-01
5.162981e-01
5.109482e-01
5.064343e-01
5.027776e-01
4.999998e-01
4.981230e-01
4.971700e-01
9.918563e-01
9.753908e-01
9.585912e-01
9.415029e-01
9.241742e-01
9.066546e-01
8.889942e-01
8.712433e-01
8.534524e-01
8.356716e-01
8.179501e-01
8.003366e-01
7.828780e-01