# vtk DataFile Version 3.0
10.TVD-MUSCLprimescheme,Pe = 1,Grid 81x81,063990.vtk
ASCII
DATASET STRUCTURED_GRID
DIMENSIONS 81 81 1
POINTS 6561 double
0.000000e+00 0.000000e+00 0.0
1.250000e-02 0.000000e+00 0.0
2.500000e-02 0.000000e+00 0.0
3.750000e-02 0.000000e+00 0.0
5.000000e-02 0.000000e+00 0.0
6.250000e-02 0.000000e+00 0.0
7.500000e-02 0.000000e+00 0.0
8.750000e-02 0.000000e+00 0.0
1.000000e-01 0.000000e+00 0.0
1.125000e-01 0.000000e+00 0.0
1.250000e-01 0.000000e+00 0.0
1.375000e-01 0.000000e+00 0.0
1.500000e-01 0.000000e+00 0.0
1.625000e-01 0.000000e+00 0.0
1.750000e-01 0.000000e+00 0.0
1.875000e-01 0.000000e+00 0.0
2.000000e-01 0.000000e+00 0.0
2.125000e-01 0.000000e+00 0.0
2.250000e-01 0.000000e+00 0.0
2.375000e-01 0.000000e+00 0.0
2.500000e-01 0.000000e+00 0.0
2.625000e-01 0.000000e+00 0.0
2.750000e-01 0.000000e+00 0.0
2.875000e-01 0.000000e+00 0.0
3.000000e-01 0.000000e+00 0.0
3.125000e-01 0.000000e+00 0.0
3.250000e-01 0.000000e+00 0.0
3.375000e-01 0.000000e+00 0.0
3.500000e-01 0.000000e+00 0.0
3.625000e-01 0.000000e+00 0.0
3.750000e-01 0.000000e+00 0.0
3.875000e-01 0.000000e+00 0.0
4.000000e-01 0.000000e+00 0.0
4.125000e-01 0.000000e+00 0.0
4.250000e-01 0.000000e+00 0.0
4.375000e-01 0.000000e+00 0.0
4.500000e-01 0.000000e+00 0.0
4.625000e-01 0.000000e+00 0.0
4.750000e-01 0.000000e+00 0.0
4.875000e-01 0.000000e+00 0.0
5.000000e-01 0.000000e+00 0.0
5.125000e-01 0.000000e+00 0.0
5.250000e-01 0.000000e+00 0.0
5.375000e-01 0.000000e+00 0.0
5.500000e-01 0.000000e+00 0.0
5.625000e-01 0.000000e+00 0.0
5.750000e-01 0.000000e+00 0.0
5.875000e-01 0.000000e+00 0.0
6.000000e-01 0.000000e+00 0.0
6.125000e-01 0.000000e+00 0.0
6.250000e-01 0.000000e+00 0.0
6.375000e-01 0.000000e+00 0.0
6.500000e-01 0.000000e+00 0.0
6.625000e-01 0.000000e+00 0.0
6.750000e-01 0.000000e+00 0.0
6.875000e-01 0.000000e+00 0.0
7.000000e-01 0.000000e+00 0.0
7.125000e-01 0.000000e+00 0.0
7.250000e-01 0.000000e+00 0.0
7.375000e-01 0.000000e+00 0.0
7.500000e-01 0.000000e+00 0.0
7.625000e-01 0.000000e+00 0.0
7.750000e-01 0.000000e+00 0.0
7.875000e-01 0.000000e+00 0.0
8.000000e-01 0.000000e+00 0.0
8.125000e-01 0.000000e+00 0.0
8.250000e-01 0.000000e+00 0.0
8.375000e-01 0.000000e+00 0.0
8.500000e-01 0.000000e+00 0.0
8.625000e-01 0.000000e+00 0.0
8.750000e-01 0.000000e+00 0.0
8.875000e-01 0.000000e+00 0.0
9.000000e-01 0.000000e+00 0.0
9.125000e-01 0.000000e+00 0.0
9.250000e-01 0.000000e+00 0.0
9.375000e-01 0.000000e+00 0.0
9.500000e-01 0.000000e+00 0.0
9.625000e-01 0.000000e+00 0.0
9.750000e-01 0.000000e+00 0.0
9.875000e-01 0.000000e+00 0.0
1.000000e+00 0.000000e+00 0.0
0.000000e+00 1.250000e-02 0.0
1.250000e-02 1.250000e-02 0.0
2.500000e-02 1.250000e-02 0.0
3.750000e-02 1.250000e-02 0.0
5.000000e-02 1.250000e-02 0.0
6.250000e-02 1.250000e-02 0.0
7.500000e-02 1.250000e-02 0.0
8.750000e-02 1.250000e-02 0.0
1.000000e-01 1.250000e-02 0.0
1.125000e-01 1.250000e-02 0.0
1.250000e-01 1.250000e-02 0.0
1.375000e-01 1.250000e-02 0.0
1.500000e-01 1.250000e-02 0.0
1.625000e-01 1.250000e-02 0.0
1.750000e-01 1.250000e-02 0.0
1.875000e-01 1.250000e-02 0.0
2.000000e-01 1.250000e-02 0.0
2.125000e-01 1.250000e-02 0.0
2.250000e-01 1.250000e-02 0.0
2.375000e-01 1.250000e-02 0.0
2.500000e-01 1.250000e-02 0.0
2.625000e-01 1.250000e-02 0.0
2.750000e-01 1.250000e-02 0.0
2.875000e-01 1.250000e-02 0.0
3.000000e-01 1.250000e-02 0.0
3.125000e-01 1.250000e-02 0.0
3.250000e-01 1.250000e-02 0.0
3.375000e-01 1.250000e-02 0.0
3.500000e-01 1.250000e-02 0.0
3.625000e-01 1.250000e-02 0.0
3.750000e-01 1.250000e-02 0.0
3.875000e-01 1.250000e-02 0.0
4.000000e-01 1.250000e-02 0.0
4.125000e-01 1.250000e-02 0.0
4.250000e-01 1.250000e-02 0.0
4.375000e-01 1.250000e-02 0.0
4.500000e-01 1.250000e-02 0.0
4.625000e-01 1.250000e-02 0.0
4.750000e-01 1.250000e-02 0.0
4.875000e-01 1.250000e-02 0.0
5.000000e-01 1.250000e-02 0.0
5.125000e-01 1.250000e-02 0.0
5.250000e-01 1.250000e-02 0.0
5.375000e-01 1.250000e-02 0.0
5.500000e-01 1.250000e-02 0.0
5.625000e-01 1.250000e-02 0.0
5.750000e-01 1.250000e-02 0.0
5.875000e-01 1.250000e-02 0.0
6.000000e-01 1.250000e-02 0.0
6.125000e-01 1.250000e-02 0.0
6.250000e-01 1.250000e-02 0.0
6.375000e-01 1.250000e-02 0.0
6.500000e-01 1.250000e-02 0.0
6.625000e-01 1.250000e-02 0.0
6.750000e-01 1.250000e-02 0.0
6.875000e-01 1.250000e-02 0.0
7.000000e-01 1.250000e-02 0.0
7.125000e-01 1.250000e-02 0.0
7.250000e-01 1.250000e-02 0.0
7.375000e-01 1.250000e-02 0.0
7.500000e-01 1.250000e-02 0.0
7.625000e-01 1.250000e-02 0.0
7.750000e-01 1.250000e-02 0.0
7.875000e-01 1.250000e-02 0.0
8.000000e-01 1.250000e-02 0.0
8.125000e-01 1.250000e-02 0.0
8.250000e-01 1.250000e-02 0.0
8.375000e-01 1.250000e-02 0.0
8.500000e-01 1.250000e-02 0.0
8.625000e-01 1.250000e-02 0.0
8.750000e-01 1.250000e-02 0.0
8.875000e-01 1.250000e-02 0.0
9.000000e-01 1.250000e-02 0.0
9.125000e-01 1.250000e-02 0.0
9.250000e-01 1.250000e-02 0.0
9.375000e-01 1.250000e-02 0.0
9.500000e-01 1.250000e-02 0.0
9.625000e-01 1.250000e-02 0.0
9.750000e-01 1.250000e-02 0.0
9.875000e-01 1.250000e-02 0.0
1.000000e+00 1.250000e-02 0.0
0.000000e+00 2.500000e-02 0.0
1.250000e-02 2.500000e-02 0.0
2.500000e-02 2.500000e-02 0.0
3.750000e-02 2.500000e-02 0.0
5.000000e-02 2.500000e-02 0.0
6.250000e-02 2.500000e-02 0.0
7.500000e-02 2.500000e-02 0.0
8.750000e-02 2.500000e-02 0.0
1.000000e-01 2.500000e-02 0.0
1.125000e-01 2.500000e-02 0.0
1.250000e-01 2.500000e-02 0.0
1.375000e-01 2.500000e-02 0.0
1.500000e-01 2.500000e-02 0.0
1.625000e-01 2.500000e-02 0.0
1.750000e-01 2.500000e-02 0.0
1.875000e-01 2.500000e-02 0.0
2.000000e-01 2.500000e-02 0.0
2.125000e-01 2.500000e-02 0.0
2.250000e-01 2.500000e-02 0.0
2.375000e-01 2.500000e-02 0.0
2.500000e-01 2.500000e-02 0.0
2.625000e-01 2.500000e-02 0.0
2.750000e-01 2.500000e-02 0.0
2.875000e-01 2.500000e-02 0.0
3.000000e-01 2.500000e-02 0.0
3.125000e-01 2.500000e-02 0.0
3.250000e-01 2.500000e-02 0.0
3.375000e-01 2.500000e-02 0.0
3.500000e-01 2.500000e-02 0.0
3.625000e-01 2.500000e-02 0.0
3.750000e-01 2.500000e-02 0.0
3.875000e-01 2.500000e-02 0.0
4.000000e-01 2.500000e-02 0.0
4.125000e-01 2.500000e-02 0.0
4.250000e-01 2.500000e-02 0.0
4.375000e-01 2.500000e-02 0.0
4.500000e-01 2.500000e-02 0.0
4.625000e-01 2.500000e-02 0.0
4.750000e-01 2.500000e-02 0.0
4.875000e-01 2.500000e-02 0.0
5.000000e-01 2.500000e-02 0.0
5.125000e-01 2.500000e-02 0.0
5.250000e-01 2.500000e-02 0.0
5.375000e-01 2.500000e-02 0.0
5.500000e-01 2.500000e-02 0.0
5.625000e-01 2.500000e-02 0.0
5.750000e-01 2.500000e-02 0.0
5.875000e-01 2.500000e-02 0.0
6.000000e-01 2.500000e-02 0.0
6.125000e-01 2.500000e-02 0.0
6.250000e-01 2.500000e-02 0.0
6.375000e-01 2.500000e-02 0.0
6.500000e-01 2.500000e-02 0.0
6.625000e-01 2.500000e-02 0.0
6.750000e-01 2.500000e-02 0.0
6.875000e-01 2.500000e-02 0.0
7.000000e-01 2.500000e-02 0.0
7.125000e-01 2.500000e-02 0.0
7.250000e-01 2.500000e-02 0.0
7.375000e-01 2.500000e-02 0.0
7.500000e-01 2.500000e-02 0.0
7.625000e-01 2.500000e-02 0.0
7.750000e-01 2.500000e-02 0.0
7.875000e-01 2.500000e-02 0.0
8.000000e-01 2.500000e-02 0.0
8.125000e-01 2.500000e-02 0.0
8.250000e-01 2.500000e-02 0.0
8.375000e-01 2.500000e-02 0.0
8.500000e-01 2.500000e-02 0.0
8.625000e-01 2.500000e-02 0.0
8.750000e-01 2.500000e-02 0.0
8.875000e-01 2.500000e-02 0.0
9.000000e-01 2.500000e-02 0.0
9.125000e-01 2.500000e-02 0.0
9.250000e-01 2.500000e-02 0.0
9.375000e-01 2.500000e-02 0.0
9.500000e-01 2.500000e-02 0.0
9.625000e-01 2.500000e-02 0.0
9.750000e-01 2.500000e-02 0.0
9.875000e-01 2.500000e-02 0.0
1.000000e+00 2.500000e-02 0.0
0.000000e+00 3.750000e-02 0.0
1.250000e-02 3.750000e-02 0.0
2.500000e-02 3.750000e-02 0.0
3.750000e-02 3.750000e-02 0.0
5.000000e-02 3.750000e-02 0.0
6.250000e-02 3.750000e-02 0.0
7.500000e-02 3.750000e-02 0.0
8.750000e-02 3.750000e-02 0.0
1.000000e-01 3.750000e-02 0.0
1.125000e-01 3.750000e-02 0.0
1.250000e-01 3.750000e-02 0.0
1.375000e-01 3.750000e-02 0.0
1.500000e-01 3.750000e-02 0.0
1.625000e-01 3.750000e-02 0.0
1.750000e-01 3.750000e-02 0.0
1.875000e-01 3.750000e-02 0.0
2.000000e-01 3.750000e-02 0.0
2.125000e-01 3.750000e-02 0.0
2.250000e-01 3.750000e-02 0.0
2.375000e-01 3.750000e-02 0.0
2.500000e-01 3.750000e-02 0.0
2.625000e-01 3.750000e-02 0.0
2.750000e-01 3.750000e-02 0.0
2.875000e-01 3.750000e-02 0.0
3.000000e-01 3.750000e-02 0.0
3.125000e-01 3.750000e-02 0.0
3.250000e-01 3.750000e-02 0.0
3.375000e-01 3.750000e-02 0.0
3.500000e-01 3.750000e-02 0.0
3.625000e-01 3.750000e-02 0.0
3.750000e-01 3.750000e-02 0.0
3.875000e-01 3.750000e-02 0.0
4.000000e-01 3.750000e-02 0.0
4.125000e-01 3.750000e-02 0.0
4.250000e-01 3.750000e-02 0.0
4.375000e-01 3.750000e-02 0.0
4.500000e-01 3.750000e-02 0.0
4.625000e-01 3.750000e-02 0.0
4.750000e-01 3.750000e-02 0.0
4.875000e-01 3.750000e-02 0.0
5.000000e-01 3.750000e-02 0.0
5.125000e-01 3.750000e-02 0.0
5.250000e-01 3.750000e-02 0.0
5.375000e-01 3.750000e-02 0.0
5.500000e-01 3.750000e-02 0.0
5.625000e-01 3.750000e-02 0.0
5.750000e-01 3.750000e-02 0.0
5.875000e-01 3.750000e-02 0.0
6.000000e-01 3.750000e-02 0.0
6.125000e-01 3.750000e-02 0.0
6.250000e-01 3.750000e-02 0.0
6.375000e-01 3.750000e-02 0.0
6.500000e-01 3.750000e-02 0.0
6.625000e-01 3.750000e-02 0.0
6.750000e-01 3.750000e-02 0.0
6.875000e-01 3.750000e-02 0.0
7.000000e-01 3.750000e-02 0.0
7.125000e-01 3.750000e-02 0.0
7.250000e-01 3.750000e-02 0.0
7.375000e-01 3.750000e-02 0.0
7.500000e-01 3.750000e-02 0.0
7.625000e-01 3.750000e-02 0.0
7.750000e-01 3.750000e-02 0.0
7.875000e-01 3.750000e-02 0.0
8.000000e-01 3.750000e-02 0.0
8.125000e-01 3.750000e-02 0.0
8.250000e-01 3.750000e-02 0.0
8.375000e-01 3.750000e-02 0.0
8.500000e-01 3.750000e-02 0.0
8.625000e-01 3.750000e-02 0.0
8.750000e-01 3.750000e-02 0.0
8.875000e-01 3.750000e-02 0.0
9.000000e-01 3.750000e-02 0.0
9.125000e-01 3.750000e-02 0.0
9.250000e-01 3.750000e-02 0.0
9.375000e-01 3.750000e-02 0.0
9.500000e-01 3.750000e-02 0.0
9.625000e-01 3.750000e-02 0.0
9.750000e-01 3.750000e-02 0.0
9.875000e-01 3.750000e-02 0.0
1.000000e+00 3.750000e-02 0.0
0.000000e+00 5.000000e-02 0.0
1.250000e-02 5.000000e-02 0.0
2.500000e-02 5.000000e-02 0.0
3.750000e-02 5.000000e-02 0.0
[...]
CELL_DATA 6400
SCALARS Temperature double 1
LOOKUP_TABLE default
5.000000e-01
2.264251e-01
1.332497e-01
9.275854e-02
7.107295e-02
5.762502e-02
4.844667e-02
4.176863e-02
3.668573e-02
3.268511e-02
2.945341e-02
2.678803e-02
2.455195e-02
2.264916e-02
2.101034e-02
1.958418e-02
1.833189e-02
1.722357e-02
1.623585e-02
1.535013e-02
1.455150e-02
1.382779e-02
1.316903e-02
1.256695e-02
1.201463e-02
1.150623e-02
1.103682e-02
1.060217e-02
1.019865e-02
9.823133e-03
9.472897e-03
9.145569e-03
8.839074e-03
8.551583e-03
8.281484e-03
8.027348e-03
7.787905e-03
7.562021e-03
7.348684e-03
7.146985e-03
6.956109e-03
6.775321e-03
6.603956e-03
6.441413e-03
6.287149e-03
6.140668e-03
6.001523e-03
5.869303e-03
5.743635e-03
5.624180e-03
5.510626e-03
5.402690e-03
5.300111e-03
5.202653e-03
5.110097e-03
5.022246e-03
4.938917e-03
4.859944e-03
4.785177e-03
4.714477e-03
4.647719e-03
4.584789e-03
4.525584e-03
4.470012e-03
4.417990e-03
4.369445e-03
4.324311e-03
4.282531e-03
4.244057e-03
4.208848e-03
4.176870e-03
4.148096e-03
4.122507e-03
4.100090e-03
4.080838e-03
4.064753e-03
4.051842e-03
4.042119e-03
4.035604e-03
4.032324e-03
7.735749e-01
5.000000e-01
3.481326e-01
2.602906e-01
2.056594e-01
1.691853e-01
1.433455e-01
1.241586e-01
1.093762e-01
9.764946e-02
8.812514e-02
8.023903e-02
7.360373e-02
6.794469e-02
6.306208e-02
5.880703e-02
5.506639e-02
5.175266e-02
4.879711e-02
4.614501e-02
4.375228e-02
4.158296e-02
3.960749e-02
3.780130e-02
3.614383e-02
3.461775e-02
3.320833e-02
3.190297e-02
3.069087e-02
2.956267e-02
2.851025e-02
2.752652e-02
2.660527e-02
2.574104e-02
2.492900e-02
2.416487e-02
2.344485e-02
2.276555e-02
2.212392e-02
2.151726e-02
2.094311e-02
2.039926e-02
1.988373e-02
1.939472e-02
1.893059e-02
1.848986e-02
1.807117e-02
1.767332e-02
1.729516e-02
1.693568e-02
1.659395e-02
1.626912e-02
1.596040e-02
1.566709e-02
1.538852e-02
1.512410e-02
1.487329e-02
1.463559e-02
1.441054e-02
1.419773e-02
1.399678e-02
1.380735e-02
1.362914e-02
1.346185e-02
1.330525e-02
1.315911e-02
1.302324e-02
1.289747e-02
1.278165e-02
1.267566e-02
1.257939e-02
1.249277e-02
1.241573e-02
1.234824e-02
1.229029e-02
1.224186e-02
1.220299e-02
1.217372e-02
1.215411e-02
1.214423e-02
8.667503e-01
6.518674e-01
5.000000e-01
3.957556e-01
3.231719e-01
2.710980e-01
2.324845e-01
2.029537e-01
1.797489e-01
1.610872e-01
1.457811e-01
1.330153e-01
1.222149e-01
1.129639e-01
1.049549e-01
9.795608e-02
9.178954e-02
8.631658e-02
8.142754e-02
7.703467e-02
7.306691e-02
6.946613e-02
6.618432e-02
6.318153e-02
6.042421e-02
5.788400e-02
5.553678e-02
5.336188e-02
5.134154e-02
4.946036e-02
4.770495e-02
4.606364e-02
4.452615e-02
4.308347e-02
4.172760e-02
4.045147e-02
3.924877e-02
3.811389e-02
3.704179e-02
3.602795e-02
3.506832e-02
3.415922e-02
3.329736e-02
3.247974e-02
3.170364e-02
3.096660e-02
3.026638e-02
2.960092e-02
2.896837e-02
2.836702e-02
2.779533e-02
2.725186e-02
2.673533e-02
2.624454e-02
2.577841e-02
2.533593e-02
2.491621e-02
2.451840e-02
2.414175e-02
2.378558e-02
2.344924e-02
2.313218e-02
2.283387e-02
2.255386e-02
2.229172e-02
2.204709e-02
2.181965e-02
2.160910e-02
2.141521e-02
2.123776e-02
2.107660e-02
2.093158e-02
2.080261e-02
2.068963e-02
2.059260e-02
2.051153e-02
2.044645e-02
2.039744e-02
2.036460e-02
2.034807e-02
9.072415e-01
7.397094e-01
6.042444e-01
5.000000e-01
4.207836e-01
3.602092e-01
3.131984e-01
2.760580e-01
2.461823e-01
2.217404e-01
2.014351e-01
1.843339e-01
1.697554e-01
1.571935e-01
1.462658e-01
1.366789e-01
1.282048e-01
1.206636e-01
1.139117e-01
1.078333e-01
1.023341e-01
9.733635e-02
9.277569e-02
8.859823e-02
8.475860e-02
8.121832e-02
7.794454e-02
7.490909e-02
7.208764e-02
6.945911e-02
6.700513e-02
6.470962e-02
6.255847e-02
6.053922e-02
5.864085e-02
5.685356e-02
5.516866e-02
5.357835e-02
5.207565e-02
5.065430e-02
4.930868e-02
4.803368e-02
4.682471e-02
4.567762e-02
4.458861e-02
4.355427e-02
4.257145e-02
4.163733e-02
4.074930e-02
3.990498e-02
3.910222e-02
3.833903e-02
3.761360e-02
3.692426e-02
3.626950e-02
3.564793e-02
3.505828e-02
3.449939e-02
3.397019e-02
3.346973e-02
3.299712e-02
3.255158e-02
3.213237e-02
3.173885e-02
3.137044e-02
3.102663e-02
3.070696e-02
3.041102e-02
3.013849e-02
2.988908e-02
2.966254e-02
2.945869e-02
2.927740e-02
2.911857e-02
2.898218e-02
2.886821e-02
2.877673e-02
2.870783e-02
2.866167e-02
2.863843e-02
9.289270e-01
7.943406e-01
6.768281e-01
5.792164e-01
5.000000e-01
4.361330e-01
3.844808e-01
3.423616e-01
3.076506e-01
2.787194e-01
2.543349e-01
2.335641e-01
2.156973e-01
2.001899e-01
1.866200e-01
1.746573e-01
1.640402e-01
1.545597e-01
1.460470e-01
1.383646e-01
1.313995e-01
1.250578e-01
1.192615e-01
1.139447e-01
1.090519e-01
1.045355e-01
1.003550e-01
9.647543e-02
9.286655e-02
8.950204e-02
8.635895e-02
8.341712e-02
8.065883e-02
7.806842e-02
7.563201e-02
7.333725e-02
7.117314e-02
6.912982e-02
6.719846e-02
6.537114e-02
6.364069e-02
6.200066e-02
6.044522e-02
5.896905e-02
5.756736e-02
5.623578e-02
5.497032e-02
5.376736e-02
5.262358e-02
5.153595e-02
5.050172e-02
4.951834e-02
4.858351e-02
4.769510e-02
4.685117e-02
4.604994e-02
4.528978e-02
4.456922e-02
4.388690e-02
4.324158e-02
4.263213e-02
4.205754e-02
4.151689e-02
4.100934e-02
4.053416e-02
4.009068e-02
3.967831e-02
3.929656e-02
3.894499e-02
3.862322e-02
3.833095e-02
3.806796e-02
3.783406e-02
3.762914e-02
3.745315e-02
3.730611e-02
3.718807e-02
3.709918e-02
3.703961e-02
3.700963e-02
9.423750e-01
8.308147e-01
7.289020e-01
6.397908e-01
5.638670e-01
5.000000e-01
4.464849e-01
4.015688e-01
3.636823e-01
3.315100e-01
3.039843e-01
2.802521e-01
2.596359e-01
2.415970e-01
2.257060e-01
2.116188e-01
1.990575e-01
1.877963e-01
1.776502e-01
1.684670e-01
1.601200e-01
1.525035e-01
1.455286e-01
1.391198e-01
1.332131e-01
1.277536e-01
1.226942e-01
1.179939e-01
1.136173e-01
1.095336e-01
1.057156e-01
1.021396e-01
9.878448e-02
9.563171e-02
9.266476e-02
8.986891e-02
8.723104e-02
8.473935e-02
8.238329e-02
8.015333e-02
7.804089e-02
7.603822e-02
7.413828e-02
7.233471e-02
7.062171e-02
6.899401e-02
6.744680e-02
6.597571e-02
6.457673e-02
6.324621e-02
6.198079e-02
6.077741e-02
5.963328e-02
5.854581e-02
5.751266e-02
5.653167e-02
5.560087e-02
5.471846e-02
5.388280e-02
5.309238e-02
5.234584e-02
5.164195e-02
5.097958e-02
5.035773e-02
4.977549e-02
4.923206e-02
4.872675e-02
4.825892e-02
4.782805e-02
4.743369e-02
4.707548e-02
4.675314e-02
4.646644e-02
4.621527e-02
4.599955e-02
4.581930e-02
4.567462e-02
4.556565e-02
4.549263e-02
4.545587e-02
9.515533e-01
8.566545e-01
7.675155e-01
6.868016e-01
6.155192e-01
5.535151e-01
5.000000e-01
4.539301e-01
4.142325e-01
3.799174e-01
3.501219e-01
3.241160e-01
3.012930e-01
2.811522e-01
2.632820e-01
2.473439e-01
2.330586e-01
2.201952e-01
2.085615e-01
1.979971e-01
1.883671e-01
1.795578e-01
1.714727e-01
1.640293e-01
1.571572e-01
1.507955e-01
1.448918e-01
1.394004e-01
1.342815e-01
1.295003e-01
1.250261e-01
1.208319e-01
1.168938e-01
1.131906e-01
1.097035e-01
1.064155e-01
1.033117e-01
1.003784e-01
9.760349e-02
9.497599e-02
9.248599e-02
9.012451e-02
8.788341e-02
8.575531e-02
8.373348e-02
8.181181e-02
7.998471e-02
7.824707e-02
7.659425e-02
7.502197e-02
7.352634e-02
7.210378e-02
7.075102e-02
6.946505e-02
6.824314e-02
6.708275e-02
6.598159e-02
6.493755e-02
6.394870e-02
6.301330e-02
6.212973e-02
6.129656e-02
6.051247e-02
5.977629e-02
5.908695e-02
5.844352e-02
5.784517e-02
5.729118e-02
5.678093e-02
5.631390e-02
5.588966e-02
5.550788e-02
5.516831e-02
5.487080e-02
5.461528e-02
5.440178e-02
5.423039e-02
5.410131e-02
5.401481e-02
5.397127e-02
9.582314e-01
8.758414e-01
7.970463e-01
7.239420e-01
6.576384e-01
5.984312e-01
5.460699e-01
5.000000e-01
4.595389e-01
4.239851e-01
3.926778e-01
3.650240e-01
3.405068e-01
3.186828e-01
2.991753e-01
2.816663e-01
2.658871e-01
2.516112e-01
2.386470e-01
2.268321e-01
2.160284e-01
2.061181e-01
1.970002e-01
1.885878e-01
1.808060e-01
1.735897e-01
1.668825e-01
1.606350e-01
1.548039e-01
1.493512e-01
1.442433e-01
1.394506e-01
1.349466e-01
1.307079e-01
1.267136e-01
1.229450e-01
1.193851e-01
1.160190e-01
1.128329e-01
1.098147e-01
1.069530e-01
1.042380e-01
1.016603e-01
9.921176e-02
9.688468e-02
9.467217e-02
9.256793e-02
9.056618e-02
8.866165e-02
8.684949e-02
8.512529e-02
8.348498e-02
8.192484e-02
8.044147e-02
7.903173e-02
7.769277e-02
7.642196e-02
7.521689e-02
7.407538e-02
7.299543e-02
7.197521e-02
7.101308e-02
7.010754e-02
6.925724e-02
6.846099e-02
6.771770e-02
6.702644e-02
6.638638e-02
6.579682e-02
6.525717e-02
6.476693e-02
6.432574e-02
6.393332e-02
6.358949e-02
6.329418e-02
6.304742e-02
6.284933e-02
6.270014e-02
6.260017e-02
6.254984e-02
9.633143e-01
8.906238e-01
8.202511e-01
7.538177e-01
6.923494e-01
6.363176e-01
5.857675e-01
5.404611e-01
5.000000e-01
4.639149e-01
4.317233e-01
4.029639e-01
3.772140e-01
3.540958e-01
3.332778e-01
3.144715e-01
2.974278e-01
2.819320e-01
2.677993e-01
2.548707e-01
2.430091e-01
2.320960e-01
2.220291e-01
2.127193e-01
2.040892e-01
1.960712e-01
1.886061e-01
1.816420e-01
1.751330e-01
1.690387e-01
1.633232e-01
1.579546e-01
1.529047e-01
1.481481e-01
1.436621e-01
1.394263e-01
1.354224e-01
1.316340e-01
1.280462e-01
1.246455e-01
1.214196e-01
1.183575e-01
1.154491e-01
1.126853e-01
1.100575e-01
1.075583e-01
1.051805e-01
1.029179e-01
1.007646e-01
9.871510e-02
9.676460e-02
9.490858e-02
9.314287e-02
9.146370e-02
8.986757e-02
8.835130e-02
8.691195e-02
8.554686e-02
8.425356e-02
8.302984e-02
8.187366e-02
8.078316e-02
7.975669e-02
7.879275e-02
7.788997e-02
7.704718e-02
7.626331e-02
7.553745e-02
7.486882e-02
7.425674e-02
7.370068e-02
7.320023e-02
7.275507e-02
7.236502e-02
7.203001e-02
7.175006e-02
7.152532e-02
7.135606e-02
7.124264e-02
7.118554e-02
9.673149e-01
9.023505e-01
8.389128e-01
7.782596e-01
7.212806e-01
6.684899e-01
6.200826e-01
5.760149e-01
5.360851e-01
5.000000e-01
4.674236e-01
4.380110e-01
4.114283e-01
3.873645e-01
3.655366e-01
3.456912e-01
3.276039e-01
3.110770e-01
2.959373e-01
2.820331e-01
2.692320e-01
2.574179e-01
2.464895e-01
2.363579e-01
2.269450e-01
2.181820e-01
2.100085e-01
2.023708e-01
1.952215e-01
1.885185e-01
1.822244e-01
1.763055e-01
1.707321e-01
1.654774e-01
1.605172e-01
1.558298e-01
1.513958e-01
1.471974e-01
1.432188e-01
1.394453e-01
1.358639e-01
1.324626e-01
1.292304e-01
1.261574e-01
1.232346e-01
1.204536e-01
1.178069e-01
1.152874e-01
1.128888e-01
1.106053e-01
1.084314e-01
1.063622e-01
1.043933e-01
1.025205e-01
1.007398e-01
9.904794e-02
9.744158e-02
9.591782e-02
9.447397e-02
9.310757e-02
9.181640e-02
9.059843e-02
8.945182e-02
8.837492e-02
8.736626e-02
8.642452e-02
8.554854e-02
8.473731e-02
8.398998e-02
8.330582e-02
8.268423e-02
8.212477e-02
8.162710e-02
8.119103e-02
8.081646e-02
8.050345e-02
8.025217e-02
8.006291e-02
7.993608e-02
7.987223e-02
9.705466e-01
9.118749e-01
8.542189e-01
7.985649e-01
7.456650e-01
6.960157e-01
6.498781e-01
6.073222e-01
5.682767e-01
5.325763e-01
5.000000e-01
4.702997e-01
4.432205e-01
4.185139e-01
3.959449e-01
3.752968e-01
3.563724e-01
3.389943e-01
3.230039e-01
3.082599e-01
2.946371e-01
2.820245e-01
2.703239e-01
2.594482e-01
2.493203e-01
2.398717e-01
2.310417e-01
2.227761e-01
2.150267e-01
2.077505e-01
2.009090e-01
1.944676e-01
1.883953e-01
1.826642e-01
1.772492e-01
1.721275e-01
1.672787e-01
1.626842e-01
1.583270e-01
1.541919e-01
1.502649e-01
1.465332e-01
1.429852e-01
1.396103e-01
1.363989e-01
1.333420e-01
1.304315e-01
1.276599e-01
1.250204e-01
1.225066e-01
1.201129e-01
1.178338e-01
1.156645e-01
1.136005e-01
1.116377e-01
1.097724e-01
1.080009e-01
1.063202e-01
1.047274e-01
1.032197e-01
1.017948e-01
1.004505e-01
9.918479e-02
9.799588e-02
9.688216e-02
9.584222e-02
9.487481e-02
9.397882e-02
9.315333e-02
9.239756e-02
9.171087e-02
9.109277e-02
9.054290e-02
9.006107e-02
8.964718e-02
8.930130e-02
8.902362e-02
8.881447e-02
8.867432e-02
8.860376e-02
9.732120e-01
9.197610e-01
8.669847e-01
8.156661e-01
7.664358e-01
7.197479e-01
6.758840e-01
6.349759e-01
5.970360e-01
5.619890e-01
5.297003e-01
5.000000e-01
4.727000e-01
4.476071e-01
4.245314e-01
4.032919e-01
3.837191e-01
3.656572e-01
3.489639e-01
3.335104e-01
3.191807e-01
3.058705e-01
2.934864e-01
2.819447e-01
2.711706e-01
2.610971e-01
2.516642e-01
2.428182e-01
2.345107e-01
2.266986e-01
2.193427e-01
2.124081e-01
2.058631e-01
1.996792e-01
1.938303e-01
1.882931e-01
1.830464e-01
1.780707e-01
1.733486e-01
1.688640e-01
1.646023e-01
1.605502e-01
1.566953e-01
1.530267e-01
1.495339e-01
1.462077e-01
1.430395e-01
1.400212e-01
1.371457e-01
1.344062e-01
1.317966e-01
1.293113e-01
1.269449e-01
1.246929e-01
1.225507e-01
1.205143e-01
1.185800e-01
1.167445e-01
1.150045e-01
1.133573e-01
1.118003e-01
1.103310e-01
1.089475e-01
1.076477e-01
1.064300e-01
1.052928e-01
1.042348e-01
1.032548e-01
1.023519e-01
1.015251e-01
1.007738e-01
1.000976e-01
9.949593e-02
9.896869e-02
9.851579e-02
9.813728e-02
9.783341e-02
9.760452e-02
9.745113e-02
9.737391e-02
9.754481e-01
9.263963e-01
8.777851e-01
8.302446e-01
7.843027e-01
7.403641e-01
6.987070e-01
6.594932e-01
6.227860e-01
5.885717e-01
5.567794e-01
5.273000e-01
5.000000e-01
4.747338e-01
4.513516e-01
4.297055e-01
4.096531e-01
3.910600e-01
3.738011e-01
3.577608e-01
3.428337e-01
3.289233e-01
3.159424e-01
3.038118e-01
2.924601e-01
2.818225e-01
2.718410e-01
2.624627e-01
2.536402e-01
2.453305e-01
2.374948e-01
2.300977e-01
2.231076e-01
2.164954e-01
2.102349e-01
2.043021e-01
1.986754e-01
1.933348e-01
1.882624e-01
1.834415e-01
1.788571e-01
1.744953e-01
1.703434e-01
1.663898e-01
1.626238e-01
1.590356e-01
1.556163e-01
1.523574e-01
1.492513e-01
1.462911e-01
1.434703e-01
1.407828e-01
1.382233e-01
1.357866e-01
1.334682e-01
1.312637e-01
1.291693e-01
1.271812e-01
1.252963e-01
1.235116e-01
1.218242e-01
1.202317e-01
1.187319e-01
1.173226e-01
1.160021e-01
1.147688e-01
1.136213e-01
1.125582e-01
1.115786e-01
1.106816e-01
1.098664e-01
1.091325e-01
1.084796e-01
1.079074e-01
1.074159e-01
1.070050e-01
1.066752e-01
1.064268e-01
1.062603e-01
1.061765e-01
9.773508e-01
9.320553e-01
8.870361e-01
8.428065e-01
7.998101e-01
7.584030e-01
7.188478e-01
6.813172e-01
6.459042e-01
6.126355e-01
5.814861e-01
5.523929e-01
5.252662e-01
5.000000e-01
4.764793e-01
4.545858e-01
4.342022e-01
4.152147e-01
3.975152e-01
3.810019e-01
3.655800e-01
3.511621e-01
3.376676e-01
3.250229e-01
3.131605e-01
3.020192e-01
2.915429e-01
2.816809e-01
2.723868e-01
2.636186e-01
2.553380e-01
2.475101e-01
2.401033e-01
2.330885e-01
2.264394e-01
2.201320e-01
2.141441e-01
2.084558e-01
2.030485e-01
1.979054e-01
1.930110e-01
1.883511e-01
1.839127e-01
1.796837e-01
1.756532e-01
1.718110e-01
1.681478e-01
1.646549e-01
1.613244e-01
1.581490e-01
1.551219e-01
1.522370e-01
1.494885e-01
1.468711e-01
1.443800e-01
1.420106e-01
1.397589e-01
1.376212e-01
1.355938e-01
1.336738e-01
1.318582e-01
1.301443e-01
1.285299e-01
1.270127e-01
1.255909e-01
1.242628e-01
1.230269e-01
1.218818e-01
1.208265e-01
1.198601e-01
1.189818e-01
1.181910e-01
1.174874e-01
1.168708e-01
1.163410e-01
1.158982e-01
1.155427e-01
1.152749e-01
1.150955e-01
1.150051e-01
9.789897e-01
9.369379e-01
8.950451e-01
8.537342e-01
8.133800e-01
7.742939e-01
7.367180e-01
7.008247e-01
6.667222e-01
6.344634e-01
6.040551e-01
5.754685e-01
5.486483e-01
5.235207e-01
5.000000e-01
4.779939e-01
4.574077e-01
4.381468e-01
4.201191e-01
4.032363e-01
3.874148e-01
3.725760e-01
3.586469e-01
3.455595e-01
3.332514e-01
3.216649e-01
3.107469e-01
3.004490e-01
2.907266e-01
2.815390e-01
2.728490e-01
2.646222e-01
2.568276e-01
2.494365e-01
2.424227e-01
2.357621e-01
2.294328e-01
2.234144e-01
2.176885e-01
2.122379e-01
2.070469e-01
2.021012e-01
1.973874e-01
1.928933e-01
1.886076e-01
1.845199e-01
1.806206e-01
1.769008e-01
1.733524e-01
1.699678e-01
1.667400e-01
1.636627e-01
1.607298e-01
1.579358e-01
1.552759e-01
1.527452e-01
1.503396e-01
1.480551e-01
1.458881e-01
1.438353e-01
1.418938e-01
1.400607e-01
1.383336e-01
1.367103e-01
1.351888e-01
1.337673e-01
1.324444e-01
1.312185e-01
1.300886e-01
1.290538e-01
1.281132e-01
1.272663e-01
1.265128e-01
1.258522e-01
1.252848e-01
1.248104e-01
1.244296e-01
1.241427e-01
1.239504e-01
1.238536e-01
9.804158e-01
9.411930e-01
9.020439e-01
8.633211e-01
8.253427e-01
7.883811e-01
7.526561e-01
7.183337e-01
6.855285e-01
6.543088e-01
6.247032e-01
5.967081e-01
5.702944e-01
5.454142e-01
5.220060e-01
5.000000e-01
4.793210e-01
4.598920e-01
4.416359e-01
4.244770e-01
4.083426e-01
3.931632e-01
3.788732e-01
3.654110e-01
3.527189e-01
3.407435e-01
3.294353e-01
3.187483e-01
3.086402e-01
2.990720e-01
2.900077e-01
2.814142e-01
2.732610e-01
2.655201e-01
2.581657e-01
2.511741e-01
2.445233e-01
2.381932e-01
2.321653e-01
2.264225e-01
2.209490e-01
2.157302e-01
2.107528e-01
2.060042e-01
2.014732e-01
1.971490e-01
1.930218e-01
1.890828e-01
1.853234e-01
1.817359e-01
1.783133e-01
1.750489e-01
1.719366e-01
1.689707e-01
1.661462e-01
1.634581e-01
1.609021e-01
1.584741e-01
1.561704e-01
1.539877e-01
1.519227e-01
1.499727e-01
1.481351e-01
1.464077e-01
1.447883e-01
1.432751e-01
1.418666e-01
1.405613e-01
1.393580e-01
1.382559e-01
1.372540e-01
1.363519e-01
1.355491e-01
1.348454e-01
1.342407e-01
1.337353e-01
1.333295e-01
1.330238e-01
1.328189e-01
1.327158e-01
9.816681e-01
9.449336e-01
9.082105e-01
8.717951e-01
8.359598e-01
8.009424e-01
7.669414e-01
7.341129e-01
7.025722e-01
6.723961e-01
6.436275e-01
6.162809e-01
5.903468e-01
5.657978e-01
5.425922e-01
5.206789e-01
5.000000e-01
4.804937e-01
4.620965e-01
4.447448e-01
4.283760e-01
4.129293e-01
3.983467e-01
3.845727e-01
3.715551e-01
3.592446e-01
3.475954e-01
3.365646e-01
3.261123e-01
3.162014e-01
3.067976e-01
2.978690e-01
2.893863e-01
2.813223e-01
2.736516e-01
2.663511e-01
2.593993e-01
2.527762e-01
2.464635e-01
2.404442e-01
2.347025e-01
2.292238e-01
2.239948e-01
2.190030e-01
2.142367e-01
2.096854e-01
2.053391e-01
2.011887e-01
1.972257e-01
1.934422e-01
1.898309e-01
1.863852e-01
1.830988e-01
1.799659e-01
1.769812e-01
1.741398e-01
1.714373e-01
1.688693e-01
1.664323e-01
1.641225e-01
1.619369e-01
1.598725e-01
1.579268e-01
1.560973e-01
1.543819e-01
1.527788e-01
1.512864e-01
1.499031e-01
1.486278e-01
1.474596e-01
1.463975e-01
1.454411e-01
1.445899e-01
1.438437e-01
1.432025e-01
1.426666e-01
1.422362e-01
1.419120e-01
1.416947e-01
1.415853e-01
9.827764e-01
9.482473e-01
9.136834e-01
8.793364e-01
8.454403e-01
8.122037e-01
7.798048e-01
7.483888e-01
7.180680e-01
6.889229e-01
6.610056e-01
6.343428e-01
6.089399e-01
5.847852e-01
5.618531e-01
5.401079e-01
5.195063e-01
5.000000e-01
4.815376e-01
4.640664e-01
4.475333e-01
4.318859e-01
4.170732e-01
4.030461e-01
3.897574e-01
3.771625e-01
3.652193e-01
3.538880e-01
3.431314e-01
3.329146e-01
3.232052e-01
3.139729e-01
3.051893e-01
2.968284e-01
2.888658e-01
2.812787e-01
2.740463e-01
2.671491e-01
2.605689e-01
2.542889e-01
2.482937e-01
2.425687e-01
2.371006e-01
2.318769e-01
2.268860e-01
2.221174e-01
2.175609e-01
2.132074e-01
2.090484e-01
2.050759e-01
2.012826e-01
1.976616e-01
1.942066e-01
1.909118e-01
1.877717e-01
1.847815e-01
1.819364e-01
1.792323e-01
1.766652e-01
1.742316e-01
1.719283e-01
1.697523e-01
1.677008e-01
1.657716e-01
1.639624e-01
1.622713e-01
1.606967e-01
1.592371e-01
1.578912e-01
1.566582e-01
1.555371e-01
1.545274e-01
1.536287e-01
1.528408e-01
1.521638e-01
1.515978e-01
1.511434e-01
1.508010e-01
1.505715e-01
1.504559e-01
9.837642e-01
9.512029e-01
9.185724e-01
8.860883e-01
8.539529e-01
8.223497e-01
7.914384e-01
7.613530e-01
7.322006e-01
7.040627e-01
6.769961e-01
6.510361e-01
6.261989e-01
6.024847e-01
5.798808e-01
5.583641e-01
5.379035e-01
5.184623e-01
5.000000e-01
4.824733e-01
4.658381e-01
4.500496e-01
4.350636e-01
4.208370e-01
4.073278e-01
3.944959e-01
3.823028e-01
3.707122e-01
3.596895e-01
3.492024e-01
3.392202e-01
3.297144e-01
3.206581e-01
3.120263e-01
3.037956e-01
2.959442e-01
2.884516e-01
2.812990e-01
2.744687e-01
2.679442e-01
2.617103e-01
2.557527e-01
2.500581e-01
2.446142e-01
2.394096e-01
2.344335e-01
2.296761e-01
2.251282e-01
2.207811e-01
2.166269e-01
2.126583e-01
2.088682e-01
2.052505e-01
2.017991e-01
1.985087e-01
1.953742e-01
1.923909e-01
1.895545e-01
1.868611e-01
1.843071e-01
1.818892e-01
1.796044e-01
1.774499e-01
1.754234e-01
1.735226e-01
1.717456e-01
1.700906e-01
1.685564e-01
1.671415e-01
1.658450e-01
1.646662e-01
1.636043e-01
1.626591e-01
1.618304e-01
1.611183e-01
1.605229e-01
1.600448e-01
1.596846e-01
1.594431e-01
1.593216e-01
9.846499e-01
9.538550e-01
9.229653e-01
8.921667e-01
8.616353e-01
8.315330e-01
8.020029e-01
7.731679e-01
7.451292e-01
7.179668e-01
6.917401e-01
6.664895e-01
6.422391e-01