# vtk DataFile Version 3.0
10.TVD-MUSCLprimescheme,Pe = 10,Grid 41x41,004270.vtk
ASCII
DATASET STRUCTURED_GRID
DIMENSIONS 41 41 1
POINTS 1681 double
0.000000e+00 0.000000e+00 0.0
2.500000e-02 0.000000e+00 0.0
5.000000e-02 0.000000e+00 0.0
7.500000e-02 0.000000e+00 0.0
1.000000e-01 0.000000e+00 0.0
1.250000e-01 0.000000e+00 0.0
1.500000e-01 0.000000e+00 0.0
1.750000e-01 0.000000e+00 0.0
2.000000e-01 0.000000e+00 0.0
2.250000e-01 0.000000e+00 0.0
2.500000e-01 0.000000e+00 0.0
2.750000e-01 0.000000e+00 0.0
3.000000e-01 0.000000e+00 0.0
3.250000e-01 0.000000e+00 0.0
3.500000e-01 0.000000e+00 0.0
3.750000e-01 0.000000e+00 0.0
4.000000e-01 0.000000e+00 0.0
4.250000e-01 0.000000e+00 0.0
4.500000e-01 0.000000e+00 0.0
4.750000e-01 0.000000e+00 0.0
5.000000e-01 0.000000e+00 0.0
5.250000e-01 0.000000e+00 0.0
5.500000e-01 0.000000e+00 0.0
5.750000e-01 0.000000e+00 0.0
6.000000e-01 0.000000e+00 0.0
6.250000e-01 0.000000e+00 0.0
6.500000e-01 0.000000e+00 0.0
6.750000e-01 0.000000e+00 0.0
7.000000e-01 0.000000e+00 0.0
7.250000e-01 0.000000e+00 0.0
7.500000e-01 0.000000e+00 0.0
7.750000e-01 0.000000e+00 0.0
8.000000e-01 0.000000e+00 0.0
8.250000e-01 0.000000e+00 0.0
8.500000e-01 0.000000e+00 0.0
8.750000e-01 0.000000e+00 0.0
9.000000e-01 0.000000e+00 0.0
9.250000e-01 0.000000e+00 0.0
9.500000e-01 0.000000e+00 0.0
9.750000e-01 0.000000e+00 0.0
1.000000e+00 0.000000e+00 0.0
0.000000e+00 2.500000e-02 0.0
2.500000e-02 2.500000e-02 0.0
5.000000e-02 2.500000e-02 0.0
7.500000e-02 2.500000e-02 0.0
1.000000e-01 2.500000e-02 0.0
1.250000e-01 2.500000e-02 0.0
1.500000e-01 2.500000e-02 0.0
1.750000e-01 2.500000e-02 0.0
2.000000e-01 2.500000e-02 0.0
2.250000e-01 2.500000e-02 0.0
2.500000e-01 2.500000e-02 0.0
2.750000e-01 2.500000e-02 0.0
3.000000e-01 2.500000e-02 0.0
3.250000e-01 2.500000e-02 0.0
3.500000e-01 2.500000e-02 0.0
3.750000e-01 2.500000e-02 0.0
4.000000e-01 2.500000e-02 0.0
4.250000e-01 2.500000e-02 0.0
4.500000e-01 2.500000e-02 0.0
4.750000e-01 2.500000e-02 0.0
5.000000e-01 2.500000e-02 0.0
5.250000e-01 2.500000e-02 0.0
5.500000e-01 2.500000e-02 0.0
5.750000e-01 2.500000e-02 0.0
6.000000e-01 2.500000e-02 0.0
6.250000e-01 2.500000e-02 0.0
6.500000e-01 2.500000e-02 0.0
6.750000e-01 2.500000e-02 0.0
7.000000e-01 2.500000e-02 0.0
7.250000e-01 2.500000e-02 0.0
7.500000e-01 2.500000e-02 0.0
7.750000e-01 2.500000e-02 0.0
8.000000e-01 2.500000e-02 0.0
8.250000e-01 2.500000e-02 0.0
8.500000e-01 2.500000e-02 0.0
8.750000e-01 2.500000e-02 0.0
9.000000e-01 2.500000e-02 0.0
9.250000e-01 2.500000e-02 0.0
9.500000e-01 2.500000e-02 0.0
9.750000e-01 2.500000e-02 0.0
1.000000e+00 2.500000e-02 0.0
0.000000e+00 5.000000e-02 0.0
2.500000e-02 5.000000e-02 0.0
5.000000e-02 5.000000e-02 0.0
7.500000e-02 5.000000e-02 0.0
1.000000e-01 5.000000e-02 0.0
1.250000e-01 5.000000e-02 0.0
1.500000e-01 5.000000e-02 0.0
1.750000e-01 5.000000e-02 0.0
2.000000e-01 5.000000e-02 0.0
2.250000e-01 5.000000e-02 0.0
2.500000e-01 5.000000e-02 0.0
2.750000e-01 5.000000e-02 0.0
3.000000e-01 5.000000e-02 0.0
3.250000e-01 5.000000e-02 0.0
3.500000e-01 5.000000e-02 0.0
3.750000e-01 5.000000e-02 0.0
4.000000e-01 5.000000e-02 0.0
4.250000e-01 5.000000e-02 0.0
4.500000e-01 5.000000e-02 0.0
4.750000e-01 5.000000e-02 0.0
5.000000e-01 5.000000e-02 0.0
5.250000e-01 5.000000e-02 0.0
5.500000e-01 5.000000e-02 0.0
5.750000e-01 5.000000e-02 0.0
6.000000e-01 5.000000e-02 0.0
6.250000e-01 5.000000e-02 0.0
6.500000e-01 5.000000e-02 0.0
6.750000e-01 5.000000e-02 0.0
7.000000e-01 5.000000e-02 0.0
7.250000e-01 5.000000e-02 0.0
7.500000e-01 5.000000e-02 0.0
7.750000e-01 5.000000e-02 0.0
8.000000e-01 5.000000e-02 0.0
8.250000e-01 5.000000e-02 0.0
8.500000e-01 5.000000e-02 0.0
8.750000e-01 5.000000e-02 0.0
9.000000e-01 5.000000e-02 0.0
9.250000e-01 5.000000e-02 0.0
9.500000e-01 5.000000e-02 0.0
9.750000e-01 5.000000e-02 0.0
1.000000e+00 5.000000e-02 0.0
0.000000e+00 7.500000e-02 0.0
2.500000e-02 7.500000e-02 0.0
5.000000e-02 7.500000e-02 0.0
7.500000e-02 7.500000e-02 0.0
1.000000e-01 7.500000e-02 0.0
1.250000e-01 7.500000e-02 0.0
1.500000e-01 7.500000e-02 0.0
1.750000e-01 7.500000e-02 0.0
2.000000e-01 7.500000e-02 0.0
2.250000e-01 7.500000e-02 0.0
2.500000e-01 7.500000e-02 0.0
2.750000e-01 7.500000e-02 0.0
3.000000e-01 7.500000e-02 0.0
3.250000e-01 7.500000e-02 0.0
3.500000e-01 7.500000e-02 0.0
3.750000e-01 7.500000e-02 0.0
4.000000e-01 7.500000e-02 0.0
4.250000e-01 7.500000e-02 0.0
4.500000e-01 7.500000e-02 0.0
4.750000e-01 7.500000e-02 0.0
5.000000e-01 7.500000e-02 0.0
5.250000e-01 7.500000e-02 0.0
5.500000e-01 7.500000e-02 0.0
5.750000e-01 7.500000e-02 0.0
6.000000e-01 7.500000e-02 0.0
6.250000e-01 7.500000e-02 0.0
6.500000e-01 7.500000e-02 0.0
6.750000e-01 7.500000e-02 0.0
7.000000e-01 7.500000e-02 0.0
7.250000e-01 7.500000e-02 0.0
7.500000e-01 7.500000e-02 0.0
7.750000e-01 7.500000e-02 0.0
8.000000e-01 7.500000e-02 0.0
8.250000e-01 7.500000e-02 0.0
8.500000e-01 7.500000e-02 0.0
8.750000e-01 7.500000e-02 0.0
9.000000e-01 7.500000e-02 0.0
9.250000e-01 7.500000e-02 0.0
9.500000e-01 7.500000e-02 0.0
9.750000e-01 7.500000e-02 0.0
1.000000e+00 7.500000e-02 0.0
0.000000e+00 1.000000e-01 0.0
2.500000e-02 1.000000e-01 0.0
5.000000e-02 1.000000e-01 0.0
7.500000e-02 1.000000e-01 0.0
1.000000e-01 1.000000e-01 0.0
1.250000e-01 1.000000e-01 0.0
1.500000e-01 1.000000e-01 0.0
1.750000e-01 1.000000e-01 0.0
2.000000e-01 1.000000e-01 0.0
2.250000e-01 1.000000e-01 0.0
2.500000e-01 1.000000e-01 0.0
2.750000e-01 1.000000e-01 0.0
3.000000e-01 1.000000e-01 0.0
3.250000e-01 1.000000e-01 0.0
3.500000e-01 1.000000e-01 0.0
3.750000e-01 1.000000e-01 0.0
4.000000e-01 1.000000e-01 0.0
4.250000e-01 1.000000e-01 0.0
4.500000e-01 1.000000e-01 0.0
4.750000e-01 1.000000e-01 0.0
5.000000e-01 1.000000e-01 0.0
5.250000e-01 1.000000e-01 0.0
5.500000e-01 1.000000e-01 0.0
5.750000e-01 1.000000e-01 0.0
6.000000e-01 1.000000e-01 0.0
6.250000e-01 1.000000e-01 0.0
6.500000e-01 1.000000e-01 0.0
6.750000e-01 1.000000e-01 0.0
7.000000e-01 1.000000e-01 0.0
7.250000e-01 1.000000e-01 0.0
7.500000e-01 1.000000e-01 0.0
7.750000e-01 1.000000e-01 0.0
8.000000e-01 1.000000e-01 0.0
8.250000e-01 1.000000e-01 0.0
8.500000e-01 1.000000e-01 0.0
8.750000e-01 1.000000e-01 0.0
9.000000e-01 1.000000e-01 0.0
9.250000e-01 1.000000e-01 0.0
9.500000e-01 1.000000e-01 0.0
9.750000e-01 1.000000e-01 0.0
1.000000e+00 1.000000e-01 0.0
0.000000e+00 1.250000e-01 0.0
2.500000e-02 1.250000e-01 0.0
5.000000e-02 1.250000e-01 0.0
7.500000e-02 1.250000e-01 0.0
1.000000e-01 1.250000e-01 0.0
1.250000e-01 1.250000e-01 0.0
1.500000e-01 1.250000e-01 0.0
1.750000e-01 1.250000e-01 0.0
2.000000e-01 1.250000e-01 0.0
2.250000e-01 1.250000e-01 0.0
2.500000e-01 1.250000e-01 0.0
2.750000e-01 1.250000e-01 0.0
3.000000e-01 1.250000e-01 0.0
3.250000e-01 1.250000e-01 0.0
3.500000e-01 1.250000e-01 0.0
3.750000e-01 1.250000e-01 0.0
4.000000e-01 1.250000e-01 0.0
4.250000e-01 1.250000e-01 0.0
4.500000e-01 1.250000e-01 0.0
4.750000e-01 1.250000e-01 0.0
5.000000e-01 1.250000e-01 0.0
5.250000e-01 1.250000e-01 0.0
5.500000e-01 1.250000e-01 0.0
5.750000e-01 1.250000e-01 0.0
6.000000e-01 1.250000e-01 0.0
6.250000e-01 1.250000e-01 0.0
6.500000e-01 1.250000e-01 0.0
6.750000e-01 1.250000e-01 0.0
7.000000e-01 1.250000e-01 0.0
7.250000e-01 1.250000e-01 0.0
7.500000e-01 1.250000e-01 0.0
7.750000e-01 1.250000e-01 0.0
8.000000e-01 1.250000e-01 0.0
8.250000e-01 1.250000e-01 0.0
8.500000e-01 1.250000e-01 0.0
8.750000e-01 1.250000e-01 0.0
9.000000e-01 1.250000e-01 0.0
9.250000e-01 1.250000e-01 0.0
9.500000e-01 1.250000e-01 0.0
9.750000e-01 1.250000e-01 0.0
1.000000e+00 1.250000e-01 0.0
0.000000e+00 1.500000e-01 0.0
2.500000e-02 1.500000e-01 0.0
5.000000e-02 1.500000e-01 0.0
7.500000e-02 1.500000e-01 0.0
1.000000e-01 1.500000e-01 0.0
1.250000e-01 1.500000e-01 0.0
1.500000e-01 1.500000e-01 0.0
1.750000e-01 1.500000e-01 0.0
2.000000e-01 1.500000e-01 0.0
2.250000e-01 1.500000e-01 0.0
2.500000e-01 1.500000e-01 0.0
2.750000e-01 1.500000e-01 0.0
3.000000e-01 1.500000e-01 0.0
3.250000e-01 1.500000e-01 0.0
3.500000e-01 1.500000e-01 0.0
3.750000e-01 1.500000e-01 0.0
4.000000e-01 1.500000e-01 0.0
4.250000e-01 1.500000e-01 0.0
4.500000e-01 1.500000e-01 0.0
4.750000e-01 1.500000e-01 0.0
5.000000e-01 1.500000e-01 0.0
5.250000e-01 1.500000e-01 0.0
5.500000e-01 1.500000e-01 0.0
5.750000e-01 1.500000e-01 0.0
6.000000e-01 1.500000e-01 0.0
6.250000e-01 1.500000e-01 0.0
6.500000e-01 1.500000e-01 0.0
6.750000e-01 1.500000e-01 0.0
7.000000e-01 1.500000e-01 0.0
7.250000e-01 1.500000e-01 0.0
7.500000e-01 1.500000e-01 0.0
7.750000e-01 1.500000e-01 0.0
8.000000e-01 1.500000e-01 0.0
8.250000e-01 1.500000e-01 0.0
8.500000e-01 1.500000e-01 0.0
8.750000e-01 1.500000e-01 0.0
9.000000e-01 1.500000e-01 0.0
9.250000e-01 1.500000e-01 0.0
9.500000e-01 1.500000e-01 0.0
9.750000e-01 1.500000e-01 0.0
1.000000e+00 1.500000e-01 0.0
0.000000e+00 1.750000e-01 0.0
2.500000e-02 1.750000e-01 0.0
5.000000e-02 1.750000e-01 0.0
7.500000e-02 1.750000e-01 0.0
1.000000e-01 1.750000e-01 0.0
1.250000e-01 1.750000e-01 0.0
1.500000e-01 1.750000e-01 0.0
1.750000e-01 1.750000e-01 0.0
2.000000e-01 1.750000e-01 0.0
2.250000e-01 1.750000e-01 0.0
2.500000e-01 1.750000e-01 0.0
2.750000e-01 1.750000e-01 0.0
3.000000e-01 1.750000e-01 0.0
3.250000e-01 1.750000e-01 0.0
3.500000e-01 1.750000e-01 0.0
3.750000e-01 1.750000e-01 0.0
4.000000e-01 1.750000e-01 0.0
4.250000e-01 1.750000e-01 0.0
4.500000e-01 1.750000e-01 0.0
4.750000e-01 1.750000e-01 0.0
5.000000e-01 1.750000e-01 0.0
5.250000e-01 1.750000e-01 0.0
5.500000e-01 1.750000e-01 0.0
5.750000e-01 1.750000e-01 0.0
6.000000e-01 1.750000e-01 0.0
6.250000e-01 1.750000e-01 0.0
6.500000e-01 1.750000e-01 0.0
6.750000e-01 1.750000e-01 0.0
7.000000e-01 1.750000e-01 0.0
7.250000e-01 1.750000e-01 0.0
7.500000e-01 1.750000e-01 0.0
7.750000e-01 1.750000e-01 0.0
8.000000e-01 1.750000e-01 0.0
8.250000e-01 1.750000e-01 0.0
8.500000e-01 1.750000e-01 0.0
8.750000e-01 1.750000e-01 0.0
9.000000e-01 1.750000e-01 0.0
9.250000e-01 1.750000e-01 0.0
9.500000e-01 1.750000e-01 0.0
9.750000e-01 1.750000e-01 0.0
1.000000e+00 1.750000e-01 0.0
[...]
CELL_DATA 1600
SCALARS Temperature double 1
LOOKUP_TABLE default
5.000000e-01
2.204619e-01
1.238277e-01
8.176317e-02
5.918490e-02
4.523942e-02
3.582682e-02
2.908937e-02
2.406243e-02
2.019392e-02
1.714462e-02
1.469457e-02
1.269497e-02
1.104161e-02
9.659386e-03
8.492913e-03
7.500452e-03
6.650014e-03
5.916693e-03
5.280837e-03
4.726755e-03
4.241783e-03
3.815605e-03
3.439748e-03
3.107203e-03
2.812132e-03
2.549651e-03
2.315661e-03
2.106714e-03
1.919912e-03
1.752840e-03
1.603509e-03
1.470327e-03
1.352094e-03
1.248012e-03
1.157738e-03
1.081455e-03
1.020010e-03
9.751076e-04
9.495987e-04
7.795381e-01
5.000000e-01
3.363584e-01
2.400276e-01
1.799828e-01
1.401060e-01
1.121513e-01
9.169646e-02
7.621904e-02
6.419320e-02
5.464796e-02
4.693844e-02
4.062082e-02
3.538028e-02
3.098774e-02
2.727282e-02
2.410640e-02
2.138895e-02
1.904265e-02
1.700590e-02
1.522932e-02
1.367298e-02
1.230426e-02
1.109633e-02
1.002693e-02
9.077518e-03
8.232549e-03
7.478954e-03
6.805735e-03
6.203646e-03
5.664966e-03
5.183340e-03
4.753681e-03
4.372154e-03
4.036223e-03
3.744799e-03
3.498504e-03
3.300094e-03
3.155087e-03
3.072705e-03
8.761723e-01
6.636416e-01
5.000000e-01
3.826584e-01
2.993943e-01
2.393514e-01
1.949807e-01
1.613620e-01
1.353058e-01
1.147090e-01
9.815070e-02
8.464561e-02
7.349364e-02
6.418595e-02
5.634518e-02
4.968636e-02
4.399082e-02
3.908831e-02
3.484457e-02
3.115252e-02
2.792586e-02
2.509436e-02
2.260045e-02
2.039653e-02
1.844302e-02
1.670680e-02
1.516005e-02
1.377935e-02
1.254490e-02
1.144008e-02
1.045095e-02
9.566048e-03
8.776201e-03
8.074495e-03
7.456386e-03
6.919973e-03
6.466490e-03
6.101082e-03
5.833981e-03
5.682215e-03
9.182368e-01
7.599724e-01
6.173416e-01
5.000000e-01
4.074034e-01
3.352186e-01
2.787921e-01
2.342649e-01
1.987074e-01
1.699632e-01
1.464546e-01
1.270213e-01
1.108011e-01
9.714491e-02
8.555818e-02
7.565893e-02
6.714870e-02
5.979161e-02
5.339929e-02
4.781987e-02
4.292981e-02
3.862783e-02
3.483027e-02
3.146759e-02
2.848161e-02
2.582349e-02
2.345200e-02
2.133227e-02
1.943481e-02
1.773473e-02
1.621117e-02
1.484693e-02
1.362824e-02
1.254477e-02
1.158977e-02
1.076054e-02
1.005919e-02
9.493852e-03
9.080497e-03
8.845592e-03
9.408151e-01
8.200172e-01
7.006057e-01
5.925966e-01
5.000000e-01
4.227784e-01
3.591230e-01
3.067741e-01
2.636065e-01
2.278212e-01
1.979644e-01
1.728849e-01
1.516775e-01
1.336297e-01
1.181790e-01
1.048785e-01
9.337031e-02
8.336627e-02
7.463226e-02
6.697687e-02
6.024252e-02
5.429862e-02
4.903636e-02
4.436453e-02
4.020634e-02
3.649687e-02
3.318103e-02
3.021206e-02
2.755019e-02
2.516179e-02
2.301856e-02
2.109718e-02
1.937896e-02
1.784993e-02
1.650107e-02
1.532900e-02
1.433708e-02
1.353714e-02
1.295205e-02
1.261947e-02
9.547606e-01
8.598940e-01
7.606486e-01
6.647814e-01
5.772216e-01
5.000000e-01
4.332665e-01
3.762057e-01
3.276303e-01
2.863023e-01
2.510798e-01
2.209701e-01
1.951353e-01
1.728796e-01
1.536288e-01
1.369104e-01
1.223351e-01
1.095814e-01
9.838289e-02
8.851783e-02
7.980097e-02
7.207680e-02
6.521423e-02
5.910229e-02
5.364675e-02
4.876733e-02
4.439545e-02
4.047254e-02
3.694857e-02
3.378102e-02
3.093406e-02
2.837805e-02
2.608930e-02
2.405015e-02
2.224943e-02
2.068332e-02
1.935694e-02
1.828664e-02
1.750346e-02
1.705817e-02
9.641732e-01
8.878487e-01
8.050193e-01
7.212079e-01
6.408770e-01
5.667335e-01
5.000000e-01
4.408903e-01
3.890338e-01
3.437768e-01
3.043682e-01
2.700625e-01
2.401706e-01
2.140793e-01
1.912549e-01
1.712393e-01
1.536413e-01
1.381286e-01
1.244188e-01
1.122720e-01
1.014841e-01
9.188114e-02
8.331442e-02
7.565664e-02
6.879850e-02
6.264605e-02
5.711844e-02
5.214606e-02
4.766916e-02
4.363668e-02
4.000546e-02
3.673972e-02
3.381091e-02
3.119789e-02
2.888757e-02
2.687614e-02
2.517110e-02
2.379429e-02
2.278630e-02
2.221301e-02
9.709106e-01
9.083035e-01
8.386380e-01
7.657351e-01
6.932259e-01
6.237943e-01
5.591097e-01
5.000000e-01
4.466925e-01
3.990338e-01
3.566562e-01
3.190918e-01
2.858431e-01
2.564242e-01
2.303824e-01
2.073077e-01
1.868351e-01
1.686432e-01
1.524511e-01
1.380143e-01
1.251199e-01
1.135837e-01
1.032452e-01
9.396545e-02
8.562357e-02
7.811456e-02
7.134718e-02
6.524231e-02
5.973150e-02
5.475599e-02
5.026589e-02
4.621980e-02
4.258471e-02
3.933641e-02
3.646039e-02
3.395343e-02
3.182620e-02
3.010708e-02
2.884775e-02
2.813126e-02
9.759376e-01
9.237810e-01
8.646942e-01
8.012926e-01
7.363935e-01
6.723697e-01
6.109662e-01
5.533075e-01
5.000000e-01
4.512645e-01
4.070593e-01
3.671793e-01
3.313289e-01
2.991705e-01
2.703576e-01
2.445528e-01
2.214397e-01
2.007273e-01
1.821522e-01
1.654783e-01
1.504952e-01
1.370164e-01
1.248771e-01
1.139317e-01
1.040521e-01
9.512547e-02
8.705296e-02
7.974785e-02
7.313467e-02
6.714815e-02
6.173271e-02
5.684209e-02
5.243959e-02
4.849856e-02
4.500375e-02
4.195330e-02
3.936200e-02
3.726596e-02
3.572951e-02
3.485498e-02
9.798061e-01
9.358068e-01
8.852910e-01
8.300368e-01
7.721788e-01
7.136977e-01
6.562232e-01
6.009662e-01
5.487355e-01
5.000000e-01
4.549661e-01
4.136517e-01
3.759481e-01
3.416680e-01
3.105806e-01
2.824361e-01
2.569814e-01
2.339711e-01
2.131727e-01
1.943703e-01
1.773660e-01
1.619798e-01
1.480491e-01
1.354278e-01
1.239851e-01
1.136045e-01
1.041823e-01
9.562672e-02
8.785735e-02
8.080407e-02
7.440688e-02
6.861587e-02
6.339155e-02
5.870580e-02
5.454347e-02
5.090501e-02
4.781038e-02
4.530476e-02
4.346674e-02
4.242010e-02
9.828554e-01
9.453520e-01
9.018493e-01
8.535454e-01
8.020356e-01
7.489202e-01
6.956318e-01
6.433438e-01
5.929407e-01
5.450339e-01
5.000000e-01
4.580291e-01
4.191709e-01
3.833756e-01
3.505264e-01
3.204651e-01
2.930107e-01
2.679722e-01
2.451584e-01
2.243832e-01
2.054695e-01
1.882515e-01
1.725757e-01
1.583011e-01
1.452992e-01
1.334534e-01
1.226588e-01
1.128216e-01
1.038586e-01
9.569657e-02
8.827297e-02
8.153554e-02
7.544326e-02
6.996759e-02
6.509461e-02
6.082814e-02
5.719453e-02
5.424938e-02
5.208727e-02
5.085548e-02
9.853054e-01
9.530616e-01
9.153544e-01
8.729787e-01
8.271151e-01
7.790299e-01
7.299375e-01
6.809082e-01
6.328207e-01
5.863483e-01
5.419709e-01
5.000000e-01
4.606093e-01
4.238652e-01
3.897545e-01
3.582076e-01
3.291167e-01
3.023504e-01
2.777642e-01
2.552085e-01
2.345341e-01
2.155957e-01
1.982546e-01
1.823801e-01
1.678505e-01
1.545536e-01
1.423865e-01
1.312561e-01
1.210790e-01
1.117813e-01
1.032996e-01
9.558079e-02
8.858384e-02
8.228108e-02
7.666100e-02
7.173207e-02
6.752827e-02
6.411710e-02
6.161079e-02
6.018218e-02
9.873050e-01
9.593792e-01
9.265064e-01
8.891989e-01
8.483225e-01
8.048647e-01
7.598294e-01
7.141569e-01
6.686711e-01
6.240519e-01
5.808291e-01
5.393907e-01
5.000000e-01
4.628153e-01
4.279114e-01
3.952982e-01
3.649378e-01
3.367583e-01
3.106645e-01
2.865473e-01
2.642895e-01
2.437713e-01
2.248734e-01
2.074801e-01
1.914806e-01
1.767704e-01
1.632523e-01
1.508369e-01
1.394429e-01
1.289982e-01
1.194403e-01
1.107172e-01
1.027892e-01
9.563114e-02
8.923514e-02
8.361565e-02
7.881568e-02
7.491610e-02
7.204842e-02
7.041292e-02
9.889584e-01
9.646197e-01
9.358141e-01
9.028551e-01
8.663703e-01
8.271204e-01
7.859207e-01
7.435758e-01
7.008295e-01
6.583320e-01
6.166244e-01
5.761348e-01
5.371847e-01
5.000000e-01
4.647255e-01
4.314390e-01
4.001654e-01
3.708886e-01
3.435623e-01
3.181185e-01
2.944749e-01
2.725399e-01
2.522174e-01
2.334098e-01
2.160209e-01
1.999573e-01
1.851303e-01
1.714568e-01
1.588605e-01
1.472731e-01
1.366349e-01
1.268970e-01
1.180228e-01
1.099907e-01
1.027983e-01
9.646719e-02
9.105092e-02
8.664514e-02
8.340224e-02
8.155169e-02
9.903406e-01
9.690123e-01
9.436548e-01
9.144418e-01
8.818210e-01
8.463712e-01
8.087451e-01
7.696176e-01
7.296424e-01
6.894194e-01
6.494736e-01
6.102455e-01
5.720886e-01
5.352745e-01
5.000000e-01
4.663975e-01
4.345452e-01
4.044773e-01
3.761929e-01
3.496645e-01
3.248447e-01
3.016717e-01
2.800745e-01
2.599765e-01
2.412982e-01
2.239603e-01
2.078849e-01
1.929980e-01
1.792305e-01
1.665197e-01
1.548112e-01
1.440607e-01
1.342361e-01
1.253214e-01
1.173208e-01
1.102646e-01
1.042183e-01
9.929353e-02
9.566521e-02
9.359351e-02
9.915071e-01
9.727272e-01
9.503136e-01
9.243411e-01
8.951215e-01
8.630896e-01
8.287607e-01
7.926923e-01
7.554472e-01
7.175639e-01
6.795349e-01
6.417924e-01
6.047018e-01
5.685610e-01
5.336025e-01
5.000000e-01
4.678749e-01
4.373042e-01
4.083277e-01
3.809555e-01
3.551737e-01
3.309507e-01
3.082412e-01
2.869908e-01
2.671388e-01
2.486216e-01
2.313748e-01
2.153350e-01
2.004424e-01
1.866422e-01
1.738867e-01
1.621379e-01
1.513703e-01
1.415745e-01
1.327629e-01
1.249760e-01
1.182923e-01
1.128412e-01
1.088212e-01
1.065244e-01
9.924995e-01
9.758936e-01
9.560092e-01
9.328513e-01
9.066297e-01
8.776649e-01
8.463587e-01
8.131649e-01
7.785603e-01
7.430186e-01
7.069893e-01
6.708833e-01
6.350622e-01
5.998346e-01
5.654548e-01
5.321251e-01
5.000000e-01
4.691913e-01
4.397738e-01
4.117908e-01
3.852600e-01
3.601782e-01
3.365257e-01
3.142707e-01
2.933723e-01
2.737840e-01
2.554560e-01
2.383376e-01
2.223797e-01
2.075370e-01
1.937704e-01
1.810496e-01
1.693570e-01
1.586917e-01
1.490754e-01
1.405600e-01
1.332385e-01
1.272591e-01
1.228451e-01
1.203216e-01
9.933500e-01
9.786111e-01
9.609117e-01
9.402084e-01
9.166337e-01
8.904186e-01
8.618714e-01
8.313568e-01
7.992727e-01
7.660289e-01
7.320278e-01
6.976496e-01
6.632417e-01
6.291114e-01
5.955227e-01
5.626958e-01
5.308087e-01
5.000000e-01
4.703730e-01
4.419999e-01
4.149262e-01
3.891749e-01
3.647510e-01
3.416447e-01
3.198352e-01
2.992934e-01
2.799853e-01
2.618738e-01
2.449221e-01
2.290956e-01
2.143650e-01
2.007094e-01
1.881203e-01
1.766065e-01
1.662004e-01
1.569666e-01
1.490136e-01
1.425095e-01
1.377031e-01
1.349537e-01
9.940833e-01
9.809573e-01
9.651554e-01
9.466007e-01
9.253677e-01
9.016171e-01
8.755812e-01
8.475489e-01
8.178478e-01
7.868273e-01
7.548416e-01
7.222358e-01
6.893355e-01
6.564377e-01
6.238071e-01
5.916723e-01
5.602262e-01
5.296270e-01
5.000000e-01
4.714411e-01
4.440197e-01
4.177826e-01
3.927569e-01
3.689542e-01
3.463728e-01
3.250015e-01
3.048222e-01
2.858123e-01
2.679478e-01
2.512060e-01
2.355687e-01
2.210253e-01
2.075778e-01
1.952455e-01
1.840728e-01
1.741381e-01
1.655664e-01
1.585464e-01
1.533536e-01
1.503811e-01
9.947192e-01
9.829941e-01
9.688475e-01
9.521801e-01
9.330231e-01
9.114822e-01
8.877280e-01
8.619857e-01
8.345217e-01
8.056297e-01
7.756168e-01
7.447915e-01
7.134527e-01
6.818815e-01
6.503355e-01
6.190445e-01
5.882092e-01
5.580001e-01
5.285589e-01
5.000000e-01
4.724127e-01
4.458639e-01
4.204009e-01
3.960546e-01
3.728417e-01
3.507682e-01
3.298317e-01
3.100243e-01
2.913357e-01
2.737554e-01
2.572771e-01
2.419015e-01
2.276418e-01
2.145293e-01
2.026210e-01
1.920099e-01
1.828384e-01
1.753167e-01
1.697469e-01
1.665567e-01
9.952732e-01
9.847707e-01
9.720741e-01
9.570702e-01
9.397575e-01
9.201990e-01
8.985159e-01
8.748801e-01
8.495048e-01
8.226340e-01
7.945305e-01
7.654659e-01
7.357105e-01
7.055251e-01
6.751553e-01
6.448263e-01
6.147400e-01
5.850738e-01
5.559803e-01
5.275873e-01
5.000000e-01
4.733021e-01
4.475582e-01
4.228165e-01
3.991105e-01
3.764625e-01
3.548854e-01
3.343859e-01
3.149669e-01
2.966312e-01
2.793844e-01
2.632394e-01
2.482214e-01
2.343740e-01
2.217679e-01
2.105114e-01
2.007649e-01
1.927602e-01
1.868267e-01
1.834259e-01
9.957582e-01
9.863270e-01
9.749056e-01
9.613722e-01
9.457014e-01
9.279232e-01
9.081189e-01
8.864163e-01
8.629836e-01
8.380202e-01
8.117485e-01
7.844043e-01
7.562287e-01
7.274601e-01
6.983283e-01
6.690493e-01
6.398218e-01
6.108251e-01
5.822174e-01
5.541361e-01
5.266979e-01
5.000000e-01
4.741215e-01
4.491254e-01
4.250606e-01
4.019640e-01
3.798631e-01
3.587784e-01
3.387265e-01
3.197227e-01
3.017853e-01
2.849395e-01
2.692229e-01
2.546922e-01
2.414321e-01
2.295668e-01
2.192750e-01
2.108107e-01
2.045298e-01
2.009277e-01
9.961844e-01
9.876957e-01
9.773995e-01
9.651697e-01
9.509636e-01
9.347858e-01
9.166856e-01
8.967548e-01
8.751229e-01
8.519509e-01
8.274243e-01
8.017454e-01
7.751266e-01
7.477826e-01
7.199255e-01
6.917588e-01
6.634743e-01
6.352490e-01
6.072430e-01
5.795991e-01
5.524418e-01
5.258785e-01
5.000000e-01
4.748818e-01
4.505860e-01
4.271628e-01
4.046529e-01
3.830902e-01
3.625039e-01
3.429222e-01
3.243756e-01
3.069018e-01
2.905511e-01
2.753937e-01
2.615285e-01
2.490959e-01
2.382932e-01
2.293961e-01
2.227874e-01
2.189948e-01
9.965603e-01
9.889037e-01
9.796035e-01
9.685324e-01
9.556355e-01
9.408977e-01
9.243434e-01
9.060346e-01
8.860683e-01
8.645722e-01
8.416989e-01
8.176199e-01
7.925199e-01
7.665902e-01
7.400235e-01
7.130092e-01
6.857293e-01
6.583553e-01
6.310458e-01
6.039454e-01
5.771835e-01
5.508746e-01
5.251182e-01
5.000000e-01
4.755932e-01
4.519596e-01
4.291521e-01
4.072164e-01
3.861941e-01
3.661253e-01
3.470529e-01
3.290269e-01
3.121102e-01
2.963864e-01
2.819691e-01
2.690147e-01
2.577390e-01
2.484395e-01
2.415248e-01
2.375541e-01
9.968928e-01
9.899731e-01
9.815570e-01
9.715184e-01
9.597937e-01
9.463532e-01
9.312015e-01
9.143764e-01
8.959479e-01
8.760149e-01
8.547008e-01
8.321495e-01
8.085194e-01
7.839791e-01
7.587018e-01
7.328612e-01
7.066277e-01
6.801648e-01
6.536272e-01
6.271583e-01
6.008895e-01
5.749394e-01
5.494140e-01
5.244068e-01
5.000000e-01
4.762654e-01
4.532662e-01
4.310593e-01
4.096972e-01
3.892318e-01
3.697175e-01
3.512162e-01
3.338037e-01
3.175766e-01
3.026630e-01
2.892354e-01
2.775277e-01
2.678587e-01
2.606620e-01
2.565268e-01
9.971879e-01
9.909225e-01
9.832932e-01
9.741765e-01
9.635031e-01
9.512327e-01
9.373539e-01
9.218854e-01
9.048745e-01
8.863955e-01
8.665466e-01
8.454464e-01
8.232296e-01
8.000427e-01
7.760397e-01
7.513784e-01
7.262160e-01
7.007066e-01
6.749985e-01
6.492318e-01
6.235375e-01
5.980360e-01
5.728372e-01
5.480404e-01
5.237346e-01
5.000000e-01
4.769088e-01
4.545273e-01
4.329186e-01
4.121448e-01
3.922715e-01
3.733723e-01
3.555349e-01
3.388690e-01
3.235169e-01
3.096667e-01
2.975702e-01
2.875665e-01
2.801134e-01
2.758282e-01
9.974503e-01
9.917675e-01
9.848399e-01
9.765480e-01
9.668190e-01
9.556046e-01
9.428816e-01
9.286528e-01
9.129470e-01
8.958177e-01
8.773412e-01
8.576135e-01
8.367477e-01
8.148697e-01
7.921151e-01
7.686252e-01
7.445440e-01
7.200147e-01
6.951778e-01
6.701683e-01
6.451146e-01
6.201369e-01
5.953470e-01
5.708479e-01
5.467338e-01
5.230912e-01
5.000000e-01
4.775348e-01
4.557676e-01
4.347704e-01
4.146190e-01
3.953978e-01
3.772062e-01
3.601664e-01
3.444344e-01
3.302134e-01
3.177725e-01
3.074705e-01
2.997875e-01
2.953675e-01
9.976843e-01
9.925210e-01
9.862207e-01
9.786677e-01
9.697879e-01
9.595275e-01
9.478539e-01
9.347577e-01
9.202521e-01
9.043733e-01
8.871783e-01
8.687439e-01
8.491631e-01
8.285432e-01
8.070020e-01
7.846650e-01
7.616624e-01
7.381262e-01
7.141877e-01
6.899757e-01
6.656141e-01
6.412216e-01
6.169098e-01
5.927835e-01
5.689407e-01
5.454727e-01
5.224652e-01
5.000000e-01
4.781570e-01
4.570167e-01
4.366645e-01
4.171948e-01
3.987181e-01
3.813685e-01
3.653149e-01
3.507754e-01
3.380351e-01
3.274714e-01
3.195858e-01
3.150465e-01
9.978933e-01
9.931943e-01
9.874551e-01
9.805652e-01
9.724498e-01
9.630514e-01
9.523308e-01
9.402685e-01
9.268653e-01
9.121426e-01
8.961414e-01
8.789210e-01
8.605571e-01
8.411395e-01
8.207695e-01
7.995576e-01
7.776203e-01
7.550779e-01
7.320522e-01
7.086643e-01
6.850331e-01
6.612735e-01
6.374961e-01
6.138059e-01
5.903028e-01
5.670814e-01
5.442324e-01
5.218430e-01
5.000000e-01
4.787915e-01
4.583113e-01
4.386633e-01
4.199679e-01
4.023706e-01
3.860527e-01
3.712459e-01
3.582509e-01
3.474624e-01
3.394015e-01
3.347586e-01
9.980801e-01
9.937964e-01
9.885599e-01
9.822653e-01
9.748382e-01
9.662190e-01
9.563633e-01
9.452440e-01
9.328518e-01
9.191959e-01
9.043034e-01
8.882187e-01
8.710018e-01
8.527269e-01
8.334803e-01
8.133578e-01
7.924630e-01
7.709044e-01
7.487939e-01
7.262446e-01
7.033688e-01
6.802773e-01
6.570778e-01
6.338747e-01
6.107682e-01
5.878552e-01
5.652296e-01
5.429833e-01
5.212085e-01
5.000000e-01
4.794591e-01
4.596980e-01
4.408467e-01
4.230611e-01
4.065339e-01
3.915097e-01
3.783035e-01
3.673262e-01
3.591168e-01
3.543856e-01
9.982472e-01
9.943350e-01
9.895491e-01
9.837888e-01
9.769814e-01
9.690659e-01
9.599945e-01
9.497341e-01
9.382673e-01
9.255931e-01
9.117270e-01
8.967004e-01
8.805597e-01
8.633651e-01
8.451888e-01
8.261133e-01
8.062296e-01
7.856350e-01
7.644313e-01
7.427229e-01
7.206156e-01
6.982147e-01
6.756244e-01
6.529471e-01
6.302825e-01
6.077285e-01
5.853810e-01
5.633355e-01
5.416887e-01
5.205409e-01
5.000000e-01
4.801858e-01
4.612366e-01
4.433179e-01
4.266332e-01
4.114389e-01
3.980633e-01
3.869319e-01
3.785999e-01
3.737955e-01
9.983965e-01
9.948167e-01
9.904340e-01
9.851531e-01
9.789028e-01
9.716220e-01
9.632603e-01
9.537802e-01
9.431579e-01
9.313841e-01
9.184645e-01
9.044192e-01
8.892828e-01
8.731030e-01
8.559393e-01
8.378621e-01
8.189504e-01
7.992906e-01
7.789747e-01
7.580985e-01
7.367606e-01
7.150605e-01
6.930982e-01
6.709731e-01
6.487837e-01
6.266277e-01
6.046022e-01
5.828051e-01
5.613367e-01
5.403020e-01
5.198142e-01
5.000000e-01
4.810053e-01
4.630041e-01
4.462097e-01
4.308893e-01
4.173832e-01
4.061302e-01
3.977002e-01
3.928367e-01
9.985297e-01
9.952463e-01
9.912238e-01
9.863718e-01
9.806210e-01
9.739107e-01
9.661891e-01
9.574153e-01
9.475604e-01
9.366084e-01
9.245567e-01
9.114162e-01
8.972108e-01
8.819772e-01
8.657639e-01
8.486297e-01
8.306430e-01
8.118797e-01
7.924222e-01
7.723582e-01
7.517786e-01
7.307771e-01
7.094489e-01
6.878898e-01
6.661963e-01
6.444651e-01
6.227938e-01
6.012819e-01
5.800321e-01
5.591533e-01
5.387634e-01
5.189947e-01
5.000000e-01
4.819609e-01
4.650996e-01
4.496928e-01
4.360920e-01
4.247475e-01
4.162421e-01
4.113326e-01
9.986479e-01
9.956278e-01
9.919255e-01
9.874552e-01
9.821501e-01
9.759498e-01
9.688021e-01
9.606636e-01
9.515014e-01
9.412942e-01
9.300324e-01
9.177189e-01
9.043689e-01
8.900093e-01
8.746785e-01
8.584255e-01
8.413083e-01
8.233935e-01
8.047545e-01
7.854707e-01
7.656260e-01
7.453078e-01
7.246063e-01
7.036136e-01
6.824234e-01
6.611309e-01
6.398336e-01
6.186315e-01
5.976294e-01
5.769389e-01
5.566821e-01
5.369959e-01
5.180390e-01
5.000000e-01
4.831085e-01
4.676503e-01
4.539861e-01
4.425769e-01
4.340163e-01
4.290727e-01
9.987520e-01
9.959638e-01
9.925436e-01
9.884102e-01
9.834989e-01
9.777506e-01
9.711124e-01
9.635396e-01
9.549963e-01
9.454565e-01
9.349054e-01
9.233390e-01
9.107649e-01
8.972017e-01
8.826792e-01
8.672371e-01
8.509246e-01
8.337996e-01
8.159272e-01
7.973790e-01
7.782321e-01
7.585679e-01
7.384714e-01
7.180309e-01
6.973370e-01
6.764831e-01
6.555656e-01
6.346850e-01
6.139473e-01
5.934661e-01
5.733667e-01
5.537903e-01
5.349004e-01
5.168915e-01
5.000000e-01
4.845192e-01
4.708184e-01
4.593675e-01
4.507694e-01
4.458019e-01
9.988423e-01
9.962552e-01
9.930800e-01
9.892395e-01
9.846710e-01
9.793167e-01
9.731239e-01
9.660466e-01
9.580467e-01
9.490950e-01
9.391719e-01
9.282679e-01
9.163844e-01
9.035328e-01
8.897354e-01
8.750240e-01
8.594400e-01
8.430334e-01
8.258619e-01
8.079901e-01
7.894886e-01
7.704332e-01
7.509041e-01
7.309853e-01
7.107646e-01
6.903333e-01
6.697866e-01
6.492246e-01
6.287541e-01
6.084903e-01
5.885610e-01
5.691107e-01
5.503071e-01
5.323497e-01
5.154807e-01
5.000000e-01
4.862838e-01
4.748098e-01
4.661888e-01
4.612060e-01
9.989185e-01
9.965015e-01
9.935335e-01
9.899408e-01
9.856629e-01
9.806431e-01
9.748289e-01
9.681738e-01
9.606380e-01
9.521896e-01
9.428055e-01
9.324717e-01
9.211843e-01
9.089491e-01
8.957817e-01
8.817077e-01
8.667615e-01
8.509864e-01
8.344336e-01
8.171616e-01
7.992351e-01
7.807250e-01
7.617068e-01
7.422610e-01
7.224723e-01
7.024298e-01
6.822275e-01
6.619649e-01
6.417491e-01
6.216965e-01
6.019366e-01
5.826168e-01
5.639080e-01
5.460139e-01
5.291816e-01
5.137162e-01
5.000000e-01
4.885169e-01
4.798840e-01
4.748926e-01
9.989800e-01
9.966999e-01
9.938989e-01
9.905061e-01
9.864629e-01
9.817134e-01
9.762057e-01
9.698929e-01
9.627340e-01
9.546952e-01
9.457506e-01
9.358829e-01
9.250839e-01
9.133549e-01
9.007065e-01
8.871588e-01
8.727409e-01
8.574905e-01
8.414536e-01
8.246833e-01
8.072398e-01
7.891893e-01
7.706039e-01
7.515605e-01
7.321413e-01
7.124334e-01
6.925295e-01
6.725286e-01
6.525376e-01
6.326738e-01
6.130681e-01
5.938697e-01
5.752525e-01
5.574231e-01
5.406325e-01
5.251902e-01
5.114831e-01
5.000000e-01
4.913629e-01
4.863676e-01
9.990249e-01
9.968449e-01
9.941660e-01
9.909195e-01
9.870480e-01
9.824965e-01
9.772137e-01
9.711522e-01
9.642705e-01
9.565333e-01
9.479127e-01
9.383892e-01
9.279516e-01