# vtk DataFile Version 3.0
10.TVD-MUSCLprimescheme,Pe = 10,Grid 81x81,010286.vtk
ASCII
DATASET STRUCTURED_GRID
DIMENSIONS 81 81 1
POINTS 6561 double
0.000000e+00 0.000000e+00 0.0
1.250000e-02 0.000000e+00 0.0
2.500000e-02 0.000000e+00 0.0
3.750000e-02 0.000000e+00 0.0
5.000000e-02 0.000000e+00 0.0
6.250000e-02 0.000000e+00 0.0
7.500000e-02 0.000000e+00 0.0
8.750000e-02 0.000000e+00 0.0
1.000000e-01 0.000000e+00 0.0
1.125000e-01 0.000000e+00 0.0
1.250000e-01 0.000000e+00 0.0
1.375000e-01 0.000000e+00 0.0
1.500000e-01 0.000000e+00 0.0
1.625000e-01 0.000000e+00 0.0
1.750000e-01 0.000000e+00 0.0
1.875000e-01 0.000000e+00 0.0
2.000000e-01 0.000000e+00 0.0
2.125000e-01 0.000000e+00 0.0
2.250000e-01 0.000000e+00 0.0
2.375000e-01 0.000000e+00 0.0
2.500000e-01 0.000000e+00 0.0
2.625000e-01 0.000000e+00 0.0
2.750000e-01 0.000000e+00 0.0
2.875000e-01 0.000000e+00 0.0
3.000000e-01 0.000000e+00 0.0
3.125000e-01 0.000000e+00 0.0
3.250000e-01 0.000000e+00 0.0
3.375000e-01 0.000000e+00 0.0
3.500000e-01 0.000000e+00 0.0
3.625000e-01 0.000000e+00 0.0
3.750000e-01 0.000000e+00 0.0
3.875000e-01 0.000000e+00 0.0
4.000000e-01 0.000000e+00 0.0
4.125000e-01 0.000000e+00 0.0
4.250000e-01 0.000000e+00 0.0
4.375000e-01 0.000000e+00 0.0
4.500000e-01 0.000000e+00 0.0
4.625000e-01 0.000000e+00 0.0
4.750000e-01 0.000000e+00 0.0
4.875000e-01 0.000000e+00 0.0
5.000000e-01 0.000000e+00 0.0
5.125000e-01 0.000000e+00 0.0
5.250000e-01 0.000000e+00 0.0
5.375000e-01 0.000000e+00 0.0
5.500000e-01 0.000000e+00 0.0
5.625000e-01 0.000000e+00 0.0
5.750000e-01 0.000000e+00 0.0
5.875000e-01 0.000000e+00 0.0
6.000000e-01 0.000000e+00 0.0
6.125000e-01 0.000000e+00 0.0
6.250000e-01 0.000000e+00 0.0
6.375000e-01 0.000000e+00 0.0
6.500000e-01 0.000000e+00 0.0
6.625000e-01 0.000000e+00 0.0
6.750000e-01 0.000000e+00 0.0
6.875000e-01 0.000000e+00 0.0
7.000000e-01 0.000000e+00 0.0
7.125000e-01 0.000000e+00 0.0
7.250000e-01 0.000000e+00 0.0
7.375000e-01 0.000000e+00 0.0
7.500000e-01 0.000000e+00 0.0
7.625000e-01 0.000000e+00 0.0
7.750000e-01 0.000000e+00 0.0
7.875000e-01 0.000000e+00 0.0
8.000000e-01 0.000000e+00 0.0
8.125000e-01 0.000000e+00 0.0
8.250000e-01 0.000000e+00 0.0
8.375000e-01 0.000000e+00 0.0
8.500000e-01 0.000000e+00 0.0
8.625000e-01 0.000000e+00 0.0
8.750000e-01 0.000000e+00 0.0
8.875000e-01 0.000000e+00 0.0
9.000000e-01 0.000000e+00 0.0
9.125000e-01 0.000000e+00 0.0
9.250000e-01 0.000000e+00 0.0
9.375000e-01 0.000000e+00 0.0
9.500000e-01 0.000000e+00 0.0
9.625000e-01 0.000000e+00 0.0
9.750000e-01 0.000000e+00 0.0
9.875000e-01 0.000000e+00 0.0
1.000000e+00 0.000000e+00 0.0
0.000000e+00 1.250000e-02 0.0
1.250000e-02 1.250000e-02 0.0
2.500000e-02 1.250000e-02 0.0
3.750000e-02 1.250000e-02 0.0
5.000000e-02 1.250000e-02 0.0
6.250000e-02 1.250000e-02 0.0
7.500000e-02 1.250000e-02 0.0
8.750000e-02 1.250000e-02 0.0
1.000000e-01 1.250000e-02 0.0
1.125000e-01 1.250000e-02 0.0
1.250000e-01 1.250000e-02 0.0
1.375000e-01 1.250000e-02 0.0
1.500000e-01 1.250000e-02 0.0
1.625000e-01 1.250000e-02 0.0
1.750000e-01 1.250000e-02 0.0
1.875000e-01 1.250000e-02 0.0
2.000000e-01 1.250000e-02 0.0
2.125000e-01 1.250000e-02 0.0
2.250000e-01 1.250000e-02 0.0
2.375000e-01 1.250000e-02 0.0
2.500000e-01 1.250000e-02 0.0
2.625000e-01 1.250000e-02 0.0
2.750000e-01 1.250000e-02 0.0
2.875000e-01 1.250000e-02 0.0
3.000000e-01 1.250000e-02 0.0
3.125000e-01 1.250000e-02 0.0
3.250000e-01 1.250000e-02 0.0
3.375000e-01 1.250000e-02 0.0
3.500000e-01 1.250000e-02 0.0
3.625000e-01 1.250000e-02 0.0
3.750000e-01 1.250000e-02 0.0
3.875000e-01 1.250000e-02 0.0
4.000000e-01 1.250000e-02 0.0
4.125000e-01 1.250000e-02 0.0
4.250000e-01 1.250000e-02 0.0
4.375000e-01 1.250000e-02 0.0
4.500000e-01 1.250000e-02 0.0
4.625000e-01 1.250000e-02 0.0
4.750000e-01 1.250000e-02 0.0
4.875000e-01 1.250000e-02 0.0
5.000000e-01 1.250000e-02 0.0
5.125000e-01 1.250000e-02 0.0
5.250000e-01 1.250000e-02 0.0
5.375000e-01 1.250000e-02 0.0
5.500000e-01 1.250000e-02 0.0
5.625000e-01 1.250000e-02 0.0
5.750000e-01 1.250000e-02 0.0
5.875000e-01 1.250000e-02 0.0
6.000000e-01 1.250000e-02 0.0
6.125000e-01 1.250000e-02 0.0
6.250000e-01 1.250000e-02 0.0
6.375000e-01 1.250000e-02 0.0
6.500000e-01 1.250000e-02 0.0
6.625000e-01 1.250000e-02 0.0
6.750000e-01 1.250000e-02 0.0
6.875000e-01 1.250000e-02 0.0
7.000000e-01 1.250000e-02 0.0
7.125000e-01 1.250000e-02 0.0
7.250000e-01 1.250000e-02 0.0
7.375000e-01 1.250000e-02 0.0
7.500000e-01 1.250000e-02 0.0
7.625000e-01 1.250000e-02 0.0
7.750000e-01 1.250000e-02 0.0
7.875000e-01 1.250000e-02 0.0
8.000000e-01 1.250000e-02 0.0
8.125000e-01 1.250000e-02 0.0
8.250000e-01 1.250000e-02 0.0
8.375000e-01 1.250000e-02 0.0
8.500000e-01 1.250000e-02 0.0
8.625000e-01 1.250000e-02 0.0
8.750000e-01 1.250000e-02 0.0
8.875000e-01 1.250000e-02 0.0
9.000000e-01 1.250000e-02 0.0
9.125000e-01 1.250000e-02 0.0
9.250000e-01 1.250000e-02 0.0
9.375000e-01 1.250000e-02 0.0
9.500000e-01 1.250000e-02 0.0
9.625000e-01 1.250000e-02 0.0
9.750000e-01 1.250000e-02 0.0
9.875000e-01 1.250000e-02 0.0
1.000000e+00 1.250000e-02 0.0
0.000000e+00 2.500000e-02 0.0
1.250000e-02 2.500000e-02 0.0
2.500000e-02 2.500000e-02 0.0
3.750000e-02 2.500000e-02 0.0
5.000000e-02 2.500000e-02 0.0
6.250000e-02 2.500000e-02 0.0
7.500000e-02 2.500000e-02 0.0
8.750000e-02 2.500000e-02 0.0
1.000000e-01 2.500000e-02 0.0
1.125000e-01 2.500000e-02 0.0
1.250000e-01 2.500000e-02 0.0
1.375000e-01 2.500000e-02 0.0
1.500000e-01 2.500000e-02 0.0
1.625000e-01 2.500000e-02 0.0
1.750000e-01 2.500000e-02 0.0
1.875000e-01 2.500000e-02 0.0
2.000000e-01 2.500000e-02 0.0
2.125000e-01 2.500000e-02 0.0
2.250000e-01 2.500000e-02 0.0
2.375000e-01 2.500000e-02 0.0
2.500000e-01 2.500000e-02 0.0
2.625000e-01 2.500000e-02 0.0
2.750000e-01 2.500000e-02 0.0
2.875000e-01 2.500000e-02 0.0
3.000000e-01 2.500000e-02 0.0
3.125000e-01 2.500000e-02 0.0
3.250000e-01 2.500000e-02 0.0
3.375000e-01 2.500000e-02 0.0
3.500000e-01 2.500000e-02 0.0
3.625000e-01 2.500000e-02 0.0
3.750000e-01 2.500000e-02 0.0
3.875000e-01 2.500000e-02 0.0
4.000000e-01 2.500000e-02 0.0
4.125000e-01 2.500000e-02 0.0
4.250000e-01 2.500000e-02 0.0
4.375000e-01 2.500000e-02 0.0
4.500000e-01 2.500000e-02 0.0
4.625000e-01 2.500000e-02 0.0
4.750000e-01 2.500000e-02 0.0
4.875000e-01 2.500000e-02 0.0
5.000000e-01 2.500000e-02 0.0
5.125000e-01 2.500000e-02 0.0
5.250000e-01 2.500000e-02 0.0
5.375000e-01 2.500000e-02 0.0
5.500000e-01 2.500000e-02 0.0
5.625000e-01 2.500000e-02 0.0
5.750000e-01 2.500000e-02 0.0
5.875000e-01 2.500000e-02 0.0
6.000000e-01 2.500000e-02 0.0
6.125000e-01 2.500000e-02 0.0
6.250000e-01 2.500000e-02 0.0
6.375000e-01 2.500000e-02 0.0
6.500000e-01 2.500000e-02 0.0
6.625000e-01 2.500000e-02 0.0
6.750000e-01 2.500000e-02 0.0
6.875000e-01 2.500000e-02 0.0
7.000000e-01 2.500000e-02 0.0
7.125000e-01 2.500000e-02 0.0
7.250000e-01 2.500000e-02 0.0
7.375000e-01 2.500000e-02 0.0
7.500000e-01 2.500000e-02 0.0
7.625000e-01 2.500000e-02 0.0
7.750000e-01 2.500000e-02 0.0
7.875000e-01 2.500000e-02 0.0
8.000000e-01 2.500000e-02 0.0
8.125000e-01 2.500000e-02 0.0
8.250000e-01 2.500000e-02 0.0
8.375000e-01 2.500000e-02 0.0
8.500000e-01 2.500000e-02 0.0
8.625000e-01 2.500000e-02 0.0
8.750000e-01 2.500000e-02 0.0
8.875000e-01 2.500000e-02 0.0
9.000000e-01 2.500000e-02 0.0
9.125000e-01 2.500000e-02 0.0
9.250000e-01 2.500000e-02 0.0
9.375000e-01 2.500000e-02 0.0
9.500000e-01 2.500000e-02 0.0
9.625000e-01 2.500000e-02 0.0
9.750000e-01 2.500000e-02 0.0
9.875000e-01 2.500000e-02 0.0
1.000000e+00 2.500000e-02 0.0
0.000000e+00 3.750000e-02 0.0
1.250000e-02 3.750000e-02 0.0
2.500000e-02 3.750000e-02 0.0
3.750000e-02 3.750000e-02 0.0
5.000000e-02 3.750000e-02 0.0
6.250000e-02 3.750000e-02 0.0
7.500000e-02 3.750000e-02 0.0
8.750000e-02 3.750000e-02 0.0
1.000000e-01 3.750000e-02 0.0
1.125000e-01 3.750000e-02 0.0
1.250000e-01 3.750000e-02 0.0
1.375000e-01 3.750000e-02 0.0
1.500000e-01 3.750000e-02 0.0
1.625000e-01 3.750000e-02 0.0
1.750000e-01 3.750000e-02 0.0
1.875000e-01 3.750000e-02 0.0
2.000000e-01 3.750000e-02 0.0
2.125000e-01 3.750000e-02 0.0
2.250000e-01 3.750000e-02 0.0
2.375000e-01 3.750000e-02 0.0
2.500000e-01 3.750000e-02 0.0
2.625000e-01 3.750000e-02 0.0
2.750000e-01 3.750000e-02 0.0
2.875000e-01 3.750000e-02 0.0
3.000000e-01 3.750000e-02 0.0
3.125000e-01 3.750000e-02 0.0
3.250000e-01 3.750000e-02 0.0
3.375000e-01 3.750000e-02 0.0
3.500000e-01 3.750000e-02 0.0
3.625000e-01 3.750000e-02 0.0
3.750000e-01 3.750000e-02 0.0
3.875000e-01 3.750000e-02 0.0
4.000000e-01 3.750000e-02 0.0
4.125000e-01 3.750000e-02 0.0
4.250000e-01 3.750000e-02 0.0
4.375000e-01 3.750000e-02 0.0
4.500000e-01 3.750000e-02 0.0
4.625000e-01 3.750000e-02 0.0
4.750000e-01 3.750000e-02 0.0
4.875000e-01 3.750000e-02 0.0
5.000000e-01 3.750000e-02 0.0
5.125000e-01 3.750000e-02 0.0
5.250000e-01 3.750000e-02 0.0
5.375000e-01 3.750000e-02 0.0
5.500000e-01 3.750000e-02 0.0
5.625000e-01 3.750000e-02 0.0
5.750000e-01 3.750000e-02 0.0
5.875000e-01 3.750000e-02 0.0
6.000000e-01 3.750000e-02 0.0
6.125000e-01 3.750000e-02 0.0
6.250000e-01 3.750000e-02 0.0
6.375000e-01 3.750000e-02 0.0
6.500000e-01 3.750000e-02 0.0
6.625000e-01 3.750000e-02 0.0
6.750000e-01 3.750000e-02 0.0
6.875000e-01 3.750000e-02 0.0
7.000000e-01 3.750000e-02 0.0
7.125000e-01 3.750000e-02 0.0
7.250000e-01 3.750000e-02 0.0
7.375000e-01 3.750000e-02 0.0
7.500000e-01 3.750000e-02 0.0
7.625000e-01 3.750000e-02 0.0
7.750000e-01 3.750000e-02 0.0
7.875000e-01 3.750000e-02 0.0
8.000000e-01 3.750000e-02 0.0
8.125000e-01 3.750000e-02 0.0
8.250000e-01 3.750000e-02 0.0
8.375000e-01 3.750000e-02 0.0
8.500000e-01 3.750000e-02 0.0
8.625000e-01 3.750000e-02 0.0
8.750000e-01 3.750000e-02 0.0
8.875000e-01 3.750000e-02 0.0
9.000000e-01 3.750000e-02 0.0
9.125000e-01 3.750000e-02 0.0
9.250000e-01 3.750000e-02 0.0
9.375000e-01 3.750000e-02 0.0
9.500000e-01 3.750000e-02 0.0
9.625000e-01 3.750000e-02 0.0
9.750000e-01 3.750000e-02 0.0
9.875000e-01 3.750000e-02 0.0
1.000000e+00 3.750000e-02 0.0
0.000000e+00 5.000000e-02 0.0
1.250000e-02 5.000000e-02 0.0
2.500000e-02 5.000000e-02 0.0
3.750000e-02 5.000000e-02 0.0
[...]
CELL_DATA 6400
SCALARS Temperature double 1
LOOKUP_TABLE default
5.000000e-01
2.235101e-01
1.285526e-01
8.719379e-02
6.496369e-02
5.116539e-02
4.176892e-02
3.496304e-02
2.981429e-02
2.579100e-02
2.256729e-02
1.993194e-02
1.774196e-02
1.589705e-02
1.432479e-02
1.297154e-02
1.179677e-02
1.076925e-02
9.864578e-03
9.063366e-03
8.350049e-03
7.711984e-03
7.138792e-03
6.621882e-03
6.154079e-03
5.729348e-03
5.342578e-03
4.989411e-03
4.666110e-03
4.369457e-03
4.096660e-03
3.845291e-03
3.613227e-03
3.398605e-03
3.199784e-03
3.015312e-03
2.843901e-03
2.684405e-03
2.535802e-03
2.397177e-03
2.267708e-03
2.146655e-03
2.033354e-03
1.927201e-03
1.827653e-03
1.734213e-03
1.646433e-03
1.563903e-03
1.486251e-03
1.413135e-03
1.344244e-03
1.279293e-03
1.218020e-03
1.160186e-03
1.105572e-03
1.053976e-03
1.005214e-03
9.591162e-04
9.155281e-04
8.743087e-04
8.353296e-04
7.984748e-04
7.636398e-04
7.307319e-04
6.996696e-04
6.703830e-04
6.428137e-04
6.169156e-04
5.926554e-04
5.700134e-04
5.489849e-04
5.295819e-04
5.118345e-04
4.957941e-04
4.815355e-04
4.691611e-04
4.588051e-04
4.506384e-04
4.448756e-04
4.417817e-04
7.764899e-01
5.000000e-01
3.422498e-01
2.500958e-01
1.925903e-01
1.541879e-01
1.270353e-01
1.069487e-01
9.155350e-02
7.941848e-02
6.963524e-02
6.160123e-02
5.490187e-02
4.924283e-02
4.440963e-02
4.024235e-02
3.661938e-02
3.344667e-02
3.065035e-02
2.817162e-02
2.596312e-02
2.398627e-02
2.220936e-02
2.060609e-02
1.915446e-02
1.783594e-02
1.663481e-02
1.553767e-02
1.453301e-02
1.361090e-02
1.276272e-02
1.198099e-02
1.125914e-02
1.059142e-02
9.972734e-03
9.398607e-03
8.865046e-03
8.368502e-03
7.905807e-03
7.474123e-03
7.070902e-03
6.693854e-03
6.340911e-03
6.010205e-03
5.700043e-03
5.408889e-03
5.135348e-03
4.878148e-03
4.636129e-03
4.408232e-03
4.193490e-03
3.991016e-03
3.799997e-03
3.619690e-03
3.449410e-03
3.288533e-03
3.136482e-03
2.992734e-03
2.856805e-03
2.728258e-03
2.606692e-03
2.491746e-03
2.383097e-03
2.280454e-03
2.183565e-03
2.092211e-03
2.006212e-03
1.925423e-03
1.849742e-03
1.779107e-03
1.713505e-03
1.652972e-03
1.597603e-03
1.547559e-03
1.503073e-03
1.464466e-03
1.432155e-03
1.406675e-03
1.388695e-03
1.379042e-03
8.714474e-01
6.577502e-01
5.000000e-01
3.892236e-01
3.112053e-01
2.549373e-01
2.131527e-01
1.812341e-01
1.562318e-01
1.362192e-01
1.199031e-01
1.063906e-01
9.504895e-02
8.541887e-02
7.715977e-02
7.001425e-02
6.378438e-02
5.831570e-02
5.348598e-02
4.919731e-02
4.537038e-02
4.194034e-02
3.885364e-02
3.606569e-02
3.353912e-02
3.124234e-02
2.914851e-02
2.723468e-02
2.548111e-02
2.387073e-02
2.238874e-02
2.102221e-02
1.975982e-02
1.859163e-02
1.750886e-02
1.650372e-02
1.556931e-02
1.469948e-02
1.388872e-02
1.313211e-02
1.242522e-02
1.176407e-02
1.114505e-02
1.056492e-02
1.002073e-02
9.509803e-03
9.029701e-03
8.578209e-03
8.153303e-03
7.753135e-03
7.376015e-03
7.020394e-03
6.684852e-03
6.368088e-03
6.068909e-03
5.786220e-03
5.519015e-03
5.266375e-03
5.027457e-03
4.801493e-03
4.587784e-03
4.385698e-03
4.194667e-03
4.014184e-03
3.843806e-03
3.683152e-03
3.531906e-03
3.389816e-03
3.256702e-03
3.132458e-03
3.017060e-03
2.910576e-03
2.813173e-03
2.725133e-03
2.646870e-03
2.578947e-03
2.522100e-03
2.477271e-03
2.445636e-03
2.428653e-03
9.128062e-01
7.499042e-01
6.107764e-01
5.000000e-01
4.140741e-01
3.475710e-01
2.956192e-01
2.544624e-01
2.213577e-01
1.943337e-01
1.719707e-01
1.532359e-01
1.373677e-01
1.237957e-01
1.120867e-01
1.019066e-01
9.299460e-02
8.514430e-02
7.819064e-02
7.200016e-02
6.646390e-02
6.149214e-02
5.701036e-02
5.295620e-02
4.927714e-02
4.592863e-02
4.287267e-02
4.007664e-02
3.751244e-02
3.515571e-02
3.298524e-02
3.098250e-02
2.913122e-02
2.741707e-02
2.582741e-02
2.435098e-02
2.297782e-02
2.169899e-02
2.050654e-02
1.939330e-02
1.835285e-02
1.737940e-02
1.646770e-02
1.561302e-02
1.481107e-02
1.405794e-02
1.335007e-02
1.268422e-02
1.205745e-02
1.146704e-02
1.091052e-02
1.038563e-02
9.890289e-03
9.422587e-03
8.980775e-03
8.563249e-03
8.168534e-03
7.795280e-03
7.442252e-03
7.108323e-03
6.792464e-03
6.493749e-03
6.211343e-03
5.944503e-03
5.692578e-03
5.455009e-03
5.231331e-03
5.021177e-03
4.824283e-03
4.640496e-03
4.469783e-03
4.312247e-03
4.168138e-03
4.037876e-03
3.922074e-03
3.821568e-03
3.737450e-03
3.671112e-03
3.624299e-03
3.599166e-03
9.350363e-01
8.074097e-01
6.887947e-01
5.859259e-01
5.000000e-01
4.293898e-01
3.715798e-01
3.240910e-01
2.848089e-01
2.520373e-01
2.244513e-01
2.010253e-01
1.809657e-01
1.636553e-01
1.486108e-01
1.354502e-01
1.238691e-01
1.136225e-01
1.045118e-01
9.637426e-02
8.907582e-02
8.250501e-02
7.656855e-02
7.118787e-02
6.629637e-02
6.183727e-02
5.776190e-02
5.402834e-02
5.060030e-02
4.744622e-02
4.453856e-02
4.185316e-02
3.936878e-02
3.706667e-02
3.493021e-02
3.294463e-02
3.109678e-02
2.937490e-02
2.776845e-02
2.626797e-02
2.486494e-02
2.355167e-02
2.232120e-02
2.116725e-02
2.008407e-02
1.906648e-02
1.810973e-02
1.720951e-02
1.636186e-02
1.556316e-02
1.481011e-02
1.409967e-02
1.342907e-02
1.279574e-02
1.219734e-02
1.163171e-02
1.109688e-02
1.059104e-02
1.011251e-02
9.659799e-03
9.231516e-03
8.826414e-03
8.443372e-03
8.081393e-03
7.739601e-03
7.417246e-03
7.113703e-03
6.828482e-03
6.561229e-03
6.311742e-03
6.079984e-03
5.866096e-03
5.670425e-03
5.493543e-03
5.336288e-03
5.199798e-03
5.085558e-03
4.995463e-03
4.931883e-03
4.897748e-03
9.488346e-01
8.458121e-01
7.450627e-01
6.524290e-01
5.706102e-01
5.000000e-01
4.397642e-01
3.885864e-01
3.450788e-01
3.079692e-01
2.761646e-01
2.487565e-01
2.250014e-01
2.042952e-01
1.861472e-01
1.701585e-01
1.560032e-01
1.434137e-01
1.321692e-01
1.220864e-01
1.130121e-01
1.048176e-01
9.739428e-02
9.064974e-02
8.450517e-02
7.889291e-02
7.375463e-02
6.903982e-02
6.470456e-02
6.071048e-02
5.702399e-02
5.361550e-02
5.045892e-02
4.753115e-02
4.481165e-02
4.228215e-02
3.992631e-02
3.772951e-02
3.567863e-02
3.376184e-02
3.196850e-02
3.028896e-02
2.871452e-02
2.723725e-02
2.584997e-02
2.454611e-02
2.331972e-02
2.216532e-02
2.107795e-02
2.005301e-02
1.908634e-02
1.817408e-02
1.731270e-02
1.649897e-02
1.572991e-02
1.500278e-02
1.431507e-02
1.366448e-02
1.304889e-02
1.246638e-02
1.191519e-02
1.139373e-02
1.090058e-02
1.043446e-02
9.994264e-03
9.579036e-03
9.187983e-03
8.820482e-03
8.476089e-03
8.154552e-03
7.855830e-03
7.580114e-03
7.327857e-03
7.099806e-03
6.897044e-03
6.721045e-03
6.573731e-03
6.457547e-03
6.375554e-03
6.331532e-03
9.582311e-01
8.729647e-01
7.868473e-01
7.043808e-01
6.284202e-01
5.602358e-01
5.000000e-01
4.472566e-01
4.012585e-01
3.611739e-01
3.261968e-01
2.955970e-01
2.687372e-01
2.450723e-01
2.241412e-01
2.055560e-01
1.889910e-01
1.741722e-01
1.608693e-01
1.488873e-01
1.380614e-01
1.282511e-01
1.193363e-01
1.112142e-01
1.037961e-01
9.700531e-02
9.077534e-02
8.504820e-02
7.977317e-02
7.490574e-02
7.040675e-02
6.624158e-02
6.237958e-02
5.879349e-02
5.545905e-02
5.235458e-02
4.946064e-02
4.675980e-02
4.423637e-02
4.187619e-02
3.966649e-02
3.759568e-02
3.565325e-02
3.382966e-02
3.211621e-02
3.050498e-02
2.898873e-02
2.756084e-02
2.621526e-02
2.494641e-02
2.374922e-02
2.261899e-02
2.155142e-02
2.054256e-02
1.958877e-02
1.868670e-02
1.783329e-02
1.702570e-02
1.626136e-02
1.553791e-02
1.485319e-02
1.420525e-02
1.359235e-02
1.301293e-02
1.246562e-02
1.194926e-02
1.146287e-02
1.100571e-02
1.057722e-02
1.017711e-02
9.805345e-03
9.462170e-03
9.148158e-03
8.864251e-03
8.611806e-03
8.392665e-03
8.209230e-03
8.064551e-03
7.962445e-03
7.907624e-03
9.650370e-01
8.930513e-01
8.187659e-01
7.455376e-01
6.759090e-01
6.114136e-01
5.527434e-01
5.000000e-01
4.529240e-01
4.110670e-01
3.739048e-01
3.409056e-01
3.115667e-01
2.854312e-01
2.620940e-01
2.412007e-01
2.224442e-01
2.055593e-01
1.903175e-01
1.765222e-01
1.640037e-01
1.526157e-01
1.422315e-01
1.327412e-01
1.240492e-01
1.160721e-01
1.087368e-01
1.019795e-01
9.574355e-02
8.997934e-02
8.464281e-02
7.969486e-02
7.510071e-02
7.082931e-02
6.685293e-02
6.314668e-02
5.968821e-02
5.645740e-02
5.343608e-02
5.060783e-02
4.795779e-02
4.547246e-02
4.313957e-02
4.094794e-02
3.888739e-02
3.694861e-02
3.512310e-02
3.340305e-02
3.178132e-02
3.025134e-02
2.880710e-02
2.744305e-02
2.615409e-02
2.493553e-02
2.378305e-02
2.269268e-02
2.166076e-02
2.068394e-02
1.975914e-02
1.888355e-02
1.805460e-02
1.726997e-02
1.652758e-02
1.582557e-02
1.516232e-02
1.453643e-02
1.394676e-02
1.339240e-02
1.287273e-02
1.238739e-02
1.193637e-02
1.151997e-02
1.113891e-02
1.079434e-02
1.048793e-02
1.022192e-02
9.999239e-03
9.823595e-03
9.699631e-03
9.633072e-03
9.701857e-01
9.084465e-01
8.437682e-01
7.786423e-01
7.151911e-01
6.549212e-01
5.987415e-01
5.470760e-01
5.000000e-01
4.573636e-01
4.188869e-01
3.842271e-01
3.530222e-01
3.249169e-01
2.995776e-01
2.766989e-01
2.560062e-01
2.372551e-01
2.202296e-01
2.047394e-01
1.906176e-01
1.777175e-01
1.659103e-01
1.550830e-01
1.451360e-01
1.359817e-01
1.275427e-01
1.197504e-01
1.125442e-01
1.058700e-01
9.967994e-02
9.393102e-02
8.858495e-02
8.360735e-02
7.896737e-02
7.463724e-02
7.059193e-02
6.680880e-02
6.326739e-02
5.994914e-02
5.683718e-02
5.391617e-02
5.117215e-02
4.859236e-02
4.616514e-02
4.387982e-02
4.172664e-02
3.969664e-02
3.778157e-02
3.597387e-02
3.426658e-02
3.265329e-02
3.112810e-02
2.968556e-02
2.832067e-02
2.702880e-02
2.580572e-02
2.464751e-02
2.355059e-02
2.251169e-02
2.152782e-02
2.059626e-02
1.971459e-02
1.888065e-02
1.809255e-02
1.734866e-02
1.664765e-02
1.598848e-02
1.537043e-02
1.479310e-02
1.425650e-02
1.376101e-02
1.330751e-02
1.289739e-02
1.253264e-02
1.221595e-02
1.195083e-02
1.174169e-02
1.159408e-02
1.151483e-02
9.742090e-01
9.205815e-01
8.637808e-01
8.056663e-01
7.479627e-01
6.920308e-01
6.388261e-01
5.889330e-01
5.426364e-01
5.000000e-01
4.609378e-01
4.252705e-01
3.927678e-01
3.631769e-01
3.362416e-01
3.117140e-01
2.893612e-01
2.689682e-01
2.503397e-01
2.332989e-01
2.176875e-01
2.033638e-01
1.902015e-01
1.780880e-01
1.669228e-01
1.566167e-01
1.470897e-01
1.382709e-01
1.300964e-01
1.225094e-01
1.154589e-01
1.088990e-01
1.027884e-01
9.709010e-02
9.177054e-02
8.679945e-02
8.214940e-02
7.779556e-02
7.371533e-02
6.988818e-02
6.629542e-02
6.291996e-02
5.974624e-02
5.675997e-02
5.394811e-02
5.129867e-02
4.880066e-02
4.644396e-02
4.421928e-02
4.211806e-02
4.013241e-02
3.825505e-02
3.647928e-02
3.479890e-02
3.320822e-02
3.170196e-02
3.027528e-02
2.892371e-02
2.764316e-02
2.642989e-02
2.528046e-02
2.419178e-02
2.316108e-02
2.218586e-02
2.126398e-02
2.039358e-02
1.957314e-02
1.880147e-02
1.807778e-02
1.740163e-02
1.677305e-02
1.619253e-02
1.566112e-02
1.518048e-02
1.475295e-02
1.438172e-02
1.407090e-02
1.382571e-02
1.365264e-02
1.355972e-02
9.774327e-01
9.303648e-01
8.800969e-01
8.280293e-01
7.755487e-01
7.238354e-01
6.738032e-01
6.260952e-01
5.811131e-01
5.390622e-01
5.000000e-01
4.638791e-01
4.305832e-01
3.999543e-01
3.718124e-01
3.459697e-01
3.222393e-01
3.004415e-01
2.804067e-01
2.619775e-01
2.450090e-01
2.293689e-01
2.149373e-01
2.016052e-01
1.892744e-01
1.778562e-01
1.672707e-01
1.574457e-01
1.483162e-01
1.398236e-01
1.319147e-01
1.245419e-01
1.176616e-01
1.112346e-01
1.052253e-01
9.960139e-02
9.433341e-02
8.939460e-02
8.476053e-02
8.040893e-02
7.631941e-02
7.247334e-02
6.885365e-02
6.544467e-02
6.223202e-02
5.920247e-02
5.634386e-02
5.364499e-02
5.109552e-02
4.868594e-02
4.640744e-02
4.425191e-02
4.221184e-02
4.028032e-02
3.845093e-02
3.671777e-02
3.507539e-02
3.351877e-02
3.204331e-02
3.064478e-02
2.931932e-02
2.806345e-02
2.687402e-02
2.574825e-02
2.468370e-02
2.367829e-02
2.273032e-02
2.183847e-02
2.100185e-02
2.022001e-02
1.949302e-02
1.882149e-02
1.820665e-02
1.765046e-02
1.715567e-02
1.672598e-02
1.636619e-02
1.608234e-02
1.588197e-02
1.577438e-02
9.800681e-01
9.383988e-01
8.936094e-01
8.467641e-01
7.989747e-01
7.512435e-01
7.044030e-01
6.590944e-01
6.157729e-01
5.747295e-01
5.361209e-01
5.000000e-01
4.663437e-01
4.350762e-01
4.060876e-01
3.792482e-01
3.544180e-01
3.314548e-01
3.102182e-01
2.905735e-01
2.723931e-01
2.555576e-01
2.399563e-01
2.254873e-01
2.120569e-01
1.995794e-01
1.879765e-01
1.771771e-01
1.671161e-01
1.577344e-01
1.489782e-01
1.407983e-01
1.331502e-01
1.259931e-01
1.192899e-01
1.130067e-01
1.071123e-01
1.015786e-01
9.637962e-02
9.149147e-02
8.689239e-02
8.256236e-02
7.848296e-02
7.463726e-02
7.100967e-02
6.758582e-02
6.435245e-02
6.129733e-02
5.840915e-02
5.567746e-02
5.309262e-02
5.064567e-02
4.832835e-02
4.613302e-02
4.405259e-02
4.208052e-02
4.021078e-02
3.843779e-02
3.675645e-02
3.516204e-02
3.365030e-02
3.221734e-02
3.085966e-02
2.957416e-02
2.835815e-02
2.720931e-02
2.612576e-02
2.510606e-02
2.414925e-02
2.325486e-02
2.242302e-02
2.165448e-02
2.095068e-02
2.031390e-02
1.974734e-02
1.925526e-02
1.884318e-02
1.851805e-02
1.828853e-02
1.816529e-02
9.822580e-01
9.450981e-01
9.049510e-01
8.626323e-01
8.190343e-01
7.749986e-01
7.312628e-01
6.884333e-01
6.469778e-01
6.072322e-01
5.694168e-01
5.336563e-01
5.000000e-01
4.684400e-01
4.389277e-01
4.113860e-01
3.857203e-01
3.618254e-01
3.395917e-01
3.189089e-01
2.996690e-01
2.817681e-01
2.651073e-01
2.495937e-01
2.351405e-01
2.216671e-01
2.090987e-01
1.973665e-01
1.864068e-01
1.761615e-01
1.665768e-01
1.576036e-01
1.491966e-01
1.413143e-01
1.339188e-01
1.269749e-01
1.204507e-01
1.143166e-01
1.085455e-01
1.031124e-01
9.799420e-02
9.316979e-02
8.861961e-02
8.432559e-02
8.027108e-02
7.644066e-02
7.282011e-02
6.939622e-02
6.615679e-02
6.309052e-02
6.018694e-02
5.743632e-02
5.482967e-02
5.235864e-02
5.001552e-02
4.779314e-02
4.568490e-02
4.368469e-02
4.178689e-02
3.998635e-02
3.827837e-02
3.665868e-02
3.512343e-02
3.366923e-02
3.229310e-02
3.099253e-02
2.976545e-02
2.861032e-02
2.752611e-02
2.651236e-02
2.556926e-02
2.469772e-02
2.389943e-02
2.317704e-02
2.253419e-02
2.197578e-02
2.150809e-02
2.113906e-02
2.087853e-02
2.073863e-02
9.841029e-01
9.507572e-01
9.145811e-01
8.762043e-01
8.363447e-01
7.957048e-01
7.549277e-01
7.145688e-01
6.750831e-01
6.368231e-01
6.000457e-01
5.649238e-01
5.315600e-01
5.000000e-01
4.702461e-01
4.422678e-01
4.160113e-01
3.914069e-01
3.683750e-01
3.468305e-01
3.266860e-01
3.078545e-01
2.902508e-01
2.737927e-01
2.584020e-01
2.440047e-01
2.305311e-01
2.179161e-01
2.060990e-01
1.950234e-01
1.846367e-01
1.748906e-01
1.657401e-01
1.571437e-01
1.490631e-01
1.414627e-01
1.343099e-01
1.275743e-01
1.212279e-01
1.152450e-01
1.096015e-01
1.042754e-01
9.924612e-02
9.449471e-02
9.000357e-02
8.575641e-02
8.173810e-02
7.793462e-02
7.433294e-02
7.092096e-02
6.768747e-02
6.462203e-02
6.171495e-02
5.895724e-02
5.634056e-02
5.385717e-02
5.149991e-02
4.926216e-02
4.713783e-02
4.512132e-02
4.320751e-02
4.139177e-02
3.966992e-02
3.803827e-02
3.649359e-02
3.503316e-02
3.365476e-02
3.235674e-02
3.113802e-02
2.999816e-02
2.893747e-02
2.795700e-02
2.705876e-02
2.624573e-02
2.552211e-02
2.489345e-02
2.436685e-02
2.395130e-02
2.365791e-02
2.350035e-02
9.856752e-01
9.555904e-01
9.228402e-01
8.879133e-01
8.513892e-01
8.138528e-01
7.758588e-01
7.379060e-01
7.004224e-01
6.637584e-01
6.281876e-01
5.939124e-01
5.610723e-01
5.297539e-01
5.000000e-01
4.718192e-01
4.451936e-01
4.200859e-01
3.964448e-01
3.742096e-01
3.533137e-01
3.336877e-01
3.152608e-01
2.979631e-01
2.817259e-01
2.664832e-01
2.521717e-01
2.387311e-01
2.261046e-01
2.142388e-01
2.030833e-01
1.925912e-01
1.827187e-01
1.734250e-01
1.646718e-01
1.564239e-01
1.486483e-01
1.413144e-01
1.343937e-01
1.278599e-01
1.216883e-01
1.158562e-01
1.103424e-01
1.051271e-01
1.001920e-01
9.552004e-02
9.109540e-02
8.690328e-02
8.292996e-02
7.916264e-02
7.558941e-02
7.219919e-02
6.898167e-02
6.592726e-02
6.302703e-02
6.027271e-02
5.765662e-02
5.517166e-02
5.281128e-02
5.056945e-02
4.844068e-02
4.641997e-02
4.450283e-02
4.268529e-02
4.096389e-02
3.933571e-02
3.779839e-02
3.635018e-02
3.498999e-02
3.371743e-02
3.253290e-02
3.143767e-02
3.043405e-02
2.952546e-02
2.871663e-02
2.801382e-02
2.742504e-02
2.696037e-02
2.663228e-02
2.645608e-02
9.870285e-01
9.597577e-01
9.299858e-01
8.980934e-01
8.645498e-01
8.298415e-01
7.944440e-01
7.587993e-01
7.233011e-01
6.882860e-01
6.540303e-01
6.207518e-01
5.886140e-01
5.577322e-01
5.281808e-01
5.000000e-01
4.732024e-01
4.477790e-01
4.237044e-01
4.009408e-01
3.794418e-01
3.591553e-01
3.400256e-01
3.219951e-01
3.050060e-01
2.890009e-01
2.739237e-01
2.597202e-01
2.463382e-01
2.337280e-01
2.218426e-01
2.106371e-01
2.000696e-01
1.901004e-01
1.806924e-01
1.718106e-01
1.634226e-01
1.554977e-01
1.480074e-01
1.409252e-01
1.342261e-01
1.278868e-01
1.218858e-01
1.162028e-01
1.108188e-01
1.057163e-01
1.008788e-01
9.629086e-02
9.193822e-02
8.780746e-02
8.388608e-02
8.016244e-02
7.662564e-02
7.326557e-02
7.007278e-02
6.703849e-02
6.415455e-02
6.141340e-02
5.880809e-02
5.633218e-02
5.397981e-02
5.174567e-02
4.962496e-02
4.761345e-02
4.570747e-02
4.390392e-02
4.220033e-02
4.059487e-02
3.908645e-02
3.767473e-02
3.636026e-02
3.514457e-02
3.403026e-02
3.302124e-02
3.212283e-02
3.134205e-02
3.068787e-02
3.017152e-02
2.980692e-02
2.961110e-02
9.882032e-01
9.633806e-01
9.362156e-01
9.070054e-01
8.761309e-01
8.439968e-01
8.110090e-01
7.775558e-01
7.439938e-01
7.106388e-01
6.777607e-01
6.455820e-01
6.142797e-01
5.839887e-01
5.548064e-01
5.267976e-01
5.000000e-01
4.744288e-01
4.500813e-01
4.269407e-01
4.049794e-01
3.841620e-01
3.644476e-01
3.457913e-01
3.281461e-01
3.114640e-01
2.956969e-01
2.807970e-01
2.667178e-01
2.534140e-01
2.408423e-01
2.289608e-01
2.177300e-01
2.071121e-01
1.970712e-01
1.875737e-01
1.785876e-01
1.700831e-01
1.620317e-01
1.544070e-01
1.471842e-01
1.403397e-01
1.338518e-01
1.276998e-01
1.218645e-01
1.163279e-01
1.110730e-01
1.060841e-01
1.013462e-01
9.684551e-02
9.256907e-02
8.850470e-02
8.464105e-02
8.096751e-02
7.747417e-02
7.415181e-02
7.099185e-02
6.798634e-02
6.512791e-02
6.240979e-02
5.982578e-02
5.737025e-02
5.503816e-02
5.282502e-02
5.072698e-02
4.874079e-02
4.686387e-02
4.509435e-02
4.343115e-02
4.187404e-02
4.042373e-02
3.908199e-02
3.785184e-02
3.673765e-02
3.574539e-02
3.488290e-02
3.416015e-02
3.358961e-02
3.318672e-02
3.297031e-02
9.892307e-01
9.665533e-01
9.416843e-01
9.148557e-01
8.863775e-01
8.565863e-01
8.258278e-01
7.944407e-01
7.627449e-01
7.310318e-01
6.995585e-01
6.685452e-01
6.381746e-01
6.085931e-01
5.799141e-01
5.522210e-01
5.255712e-01
5.000000e-01
4.755242e-01
4.521455e-01
4.298535e-01
4.086285e-01
3.884434e-01
3.692659e-01
3.510601e-01
3.337874e-01
3.174079e-01
3.018810e-01
2.871660e-01
2.732229e-01
2.600124e-01
2.474965e-01
2.356382e-01
2.244022e-01
2.137547e-01
2.036634e-01
1.940977e-01
1.850284e-01
1.764278e-01
1.682701e-01
1.605304e-01
1.531856e-01
1.462138e-01
1.395942e-01
1.333076e-01
1.273356e-01
1.216610e-01
1.162677e-01
1.111405e-01
1.062652e-01
1.016283e-01
9.721731e-02
9.302052e-02
8.902689e-02
8.522612e-02
8.160861e-02
7.816540e-02
7.488816e-02
7.176921e-02
6.880145e-02
6.597838e-02
6.329410e-02
6.074333e-02
5.832138e-02
5.602422e-02
5.384848e-02
5.179152e-02
4.985145e-02
4.802721e-02
4.631871e-02
4.472685e-02
4.325371e-02
4.190270e-02
4.067874e-02
3.958849e-02
3.864065e-02
3.784625e-02
3.721908e-02
3.677615e-02
3.653824e-02
9.901354e-01
9.693496e-01
9.465140e-01
9.218094e-01
8.954882e-01
8.678308e-01
8.391307e-01
8.096825e-01
7.797704e-01
7.496603e-01
7.195933e-01
6.897818e-01
6.604083e-01
6.316250e-01
6.035552e-01
5.762956e-01
5.499187e-01
5.244758e-01
5.000000e-01
4.765090e-01
4.540075e-01
4.324902e-01
4.119430e-01
3.923456e-01
3.736726e-01
3.558950e-01
3.389811e-01
3.228977e-01
3.076105e-01
2.930849e-01
2.792862e-01
2.661803e-01
2.537338e-01
2.419141e-01
2.306896e-01
2.200301e-01
2.099064e-01
2.002906e-01
1.911562e-01
1.824777e-01
1.742312e-01
1.663938e-01
1.589437e-01
1.518606e-01
1.451250e-01
1.387186e-01
1.326240e-01
1.268250e-01
1.213062e-01
1.160531e-01
1.110520e-01
1.062900e-01
1.017552e-01
9.743611e-02
9.332219e-02
8.940350e-02
8.567076e-02
8.211536e-02
7.872931e-02
7.550522e-02
7.243636e-02
6.951659e-02
6.674041e-02
6.410298e-02
6.160012e-02
5.922838e-02
5.698505e-02
5.486826e-02
5.287705e-02
5.101144e-02
4.927258e-02
4.766289e-02
4.618622e-02
4.484806e-02
4.365582e-02
4.261911e-02
4.175009e-02
4.106392e-02
4.057928e-02
4.031895e-02
9.909366e-01
9.718284e-01
9.508027e-01
9.279998e-01
9.036257e-01
8.779136e-01
8.511127e-01
8.234778e-01
7.952606e-01
7.667011e-01
7.380225e-01
7.094265e-01
6.810911e-01