# vtk DataFile Version 3.0
10.TVD-MUSCLprimescheme,Pe = 100,Grid 41x41,006835.vtk
ASCII
DATASET STRUCTURED_GRID
DIMENSIONS 41 41 1
POINTS 1681 double
0.000000e+00 0.000000e+00 0.0
2.500000e-02 0.000000e+00 0.0
5.000000e-02 0.000000e+00 0.0
7.500000e-02 0.000000e+00 0.0
1.000000e-01 0.000000e+00 0.0
1.250000e-01 0.000000e+00 0.0
1.500000e-01 0.000000e+00 0.0
1.750000e-01 0.000000e+00 0.0
2.000000e-01 0.000000e+00 0.0
2.250000e-01 0.000000e+00 0.0
2.500000e-01 0.000000e+00 0.0
2.750000e-01 0.000000e+00 0.0
3.000000e-01 0.000000e+00 0.0
3.250000e-01 0.000000e+00 0.0
3.500000e-01 0.000000e+00 0.0
3.750000e-01 0.000000e+00 0.0
4.000000e-01 0.000000e+00 0.0
4.250000e-01 0.000000e+00 0.0
4.500000e-01 0.000000e+00 0.0
4.750000e-01 0.000000e+00 0.0
5.000000e-01 0.000000e+00 0.0
5.250000e-01 0.000000e+00 0.0
5.500000e-01 0.000000e+00 0.0
5.750000e-01 0.000000e+00 0.0
6.000000e-01 0.000000e+00 0.0
6.250000e-01 0.000000e+00 0.0
6.500000e-01 0.000000e+00 0.0
6.750000e-01 0.000000e+00 0.0
7.000000e-01 0.000000e+00 0.0
7.250000e-01 0.000000e+00 0.0
7.500000e-01 0.000000e+00 0.0
7.750000e-01 0.000000e+00 0.0
8.000000e-01 0.000000e+00 0.0
8.250000e-01 0.000000e+00 0.0
8.500000e-01 0.000000e+00 0.0
8.750000e-01 0.000000e+00 0.0
9.000000e-01 0.000000e+00 0.0
9.250000e-01 0.000000e+00 0.0
9.500000e-01 0.000000e+00 0.0
9.750000e-01 0.000000e+00 0.0
1.000000e+00 0.000000e+00 0.0
0.000000e+00 2.500000e-02 0.0
2.500000e-02 2.500000e-02 0.0
5.000000e-02 2.500000e-02 0.0
7.500000e-02 2.500000e-02 0.0
1.000000e-01 2.500000e-02 0.0
1.250000e-01 2.500000e-02 0.0
1.500000e-01 2.500000e-02 0.0
1.750000e-01 2.500000e-02 0.0
2.000000e-01 2.500000e-02 0.0
2.250000e-01 2.500000e-02 0.0
2.500000e-01 2.500000e-02 0.0
2.750000e-01 2.500000e-02 0.0
3.000000e-01 2.500000e-02 0.0
3.250000e-01 2.500000e-02 0.0
3.500000e-01 2.500000e-02 0.0
3.750000e-01 2.500000e-02 0.0
4.000000e-01 2.500000e-02 0.0
4.250000e-01 2.500000e-02 0.0
4.500000e-01 2.500000e-02 0.0
4.750000e-01 2.500000e-02 0.0
5.000000e-01 2.500000e-02 0.0
5.250000e-01 2.500000e-02 0.0
5.500000e-01 2.500000e-02 0.0
5.750000e-01 2.500000e-02 0.0
6.000000e-01 2.500000e-02 0.0
6.250000e-01 2.500000e-02 0.0
6.500000e-01 2.500000e-02 0.0
6.750000e-01 2.500000e-02 0.0
7.000000e-01 2.500000e-02 0.0
7.250000e-01 2.500000e-02 0.0
7.500000e-01 2.500000e-02 0.0
7.750000e-01 2.500000e-02 0.0
8.000000e-01 2.500000e-02 0.0
8.250000e-01 2.500000e-02 0.0
8.500000e-01 2.500000e-02 0.0
8.750000e-01 2.500000e-02 0.0
9.000000e-01 2.500000e-02 0.0
9.250000e-01 2.500000e-02 0.0
9.500000e-01 2.500000e-02 0.0
9.750000e-01 2.500000e-02 0.0
1.000000e+00 2.500000e-02 0.0
0.000000e+00 5.000000e-02 0.0
2.500000e-02 5.000000e-02 0.0
5.000000e-02 5.000000e-02 0.0
7.500000e-02 5.000000e-02 0.0
1.000000e-01 5.000000e-02 0.0
1.250000e-01 5.000000e-02 0.0
1.500000e-01 5.000000e-02 0.0
1.750000e-01 5.000000e-02 0.0
2.000000e-01 5.000000e-02 0.0
2.250000e-01 5.000000e-02 0.0
2.500000e-01 5.000000e-02 0.0
2.750000e-01 5.000000e-02 0.0
3.000000e-01 5.000000e-02 0.0
3.250000e-01 5.000000e-02 0.0
3.500000e-01 5.000000e-02 0.0
3.750000e-01 5.000000e-02 0.0
4.000000e-01 5.000000e-02 0.0
4.250000e-01 5.000000e-02 0.0
4.500000e-01 5.000000e-02 0.0
4.750000e-01 5.000000e-02 0.0
5.000000e-01 5.000000e-02 0.0
5.250000e-01 5.000000e-02 0.0
5.500000e-01 5.000000e-02 0.0
5.750000e-01 5.000000e-02 0.0
6.000000e-01 5.000000e-02 0.0
6.250000e-01 5.000000e-02 0.0
6.500000e-01 5.000000e-02 0.0
6.750000e-01 5.000000e-02 0.0
7.000000e-01 5.000000e-02 0.0
7.250000e-01 5.000000e-02 0.0
7.500000e-01 5.000000e-02 0.0
7.750000e-01 5.000000e-02 0.0
8.000000e-01 5.000000e-02 0.0
8.250000e-01 5.000000e-02 0.0
8.500000e-01 5.000000e-02 0.0
8.750000e-01 5.000000e-02 0.0
9.000000e-01 5.000000e-02 0.0
9.250000e-01 5.000000e-02 0.0
9.500000e-01 5.000000e-02 0.0
9.750000e-01 5.000000e-02 0.0
1.000000e+00 5.000000e-02 0.0
0.000000e+00 7.500000e-02 0.0
2.500000e-02 7.500000e-02 0.0
5.000000e-02 7.500000e-02 0.0
7.500000e-02 7.500000e-02 0.0
1.000000e-01 7.500000e-02 0.0
1.250000e-01 7.500000e-02 0.0
1.500000e-01 7.500000e-02 0.0
1.750000e-01 7.500000e-02 0.0
2.000000e-01 7.500000e-02 0.0
2.250000e-01 7.500000e-02 0.0
2.500000e-01 7.500000e-02 0.0
2.750000e-01 7.500000e-02 0.0
3.000000e-01 7.500000e-02 0.0
3.250000e-01 7.500000e-02 0.0
3.500000e-01 7.500000e-02 0.0
3.750000e-01 7.500000e-02 0.0
4.000000e-01 7.500000e-02 0.0
4.250000e-01 7.500000e-02 0.0
4.500000e-01 7.500000e-02 0.0
4.750000e-01 7.500000e-02 0.0
5.000000e-01 7.500000e-02 0.0
5.250000e-01 7.500000e-02 0.0
5.500000e-01 7.500000e-02 0.0
5.750000e-01 7.500000e-02 0.0
6.000000e-01 7.500000e-02 0.0
6.250000e-01 7.500000e-02 0.0
6.500000e-01 7.500000e-02 0.0
6.750000e-01 7.500000e-02 0.0
7.000000e-01 7.500000e-02 0.0
7.250000e-01 7.500000e-02 0.0
7.500000e-01 7.500000e-02 0.0
7.750000e-01 7.500000e-02 0.0
8.000000e-01 7.500000e-02 0.0
8.250000e-01 7.500000e-02 0.0
8.500000e-01 7.500000e-02 0.0
8.750000e-01 7.500000e-02 0.0
9.000000e-01 7.500000e-02 0.0
9.250000e-01 7.500000e-02 0.0
9.500000e-01 7.500000e-02 0.0
9.750000e-01 7.500000e-02 0.0
1.000000e+00 7.500000e-02 0.0
0.000000e+00 1.000000e-01 0.0
2.500000e-02 1.000000e-01 0.0
5.000000e-02 1.000000e-01 0.0
7.500000e-02 1.000000e-01 0.0
1.000000e-01 1.000000e-01 0.0
1.250000e-01 1.000000e-01 0.0
1.500000e-01 1.000000e-01 0.0
1.750000e-01 1.000000e-01 0.0
2.000000e-01 1.000000e-01 0.0
2.250000e-01 1.000000e-01 0.0
2.500000e-01 1.000000e-01 0.0
2.750000e-01 1.000000e-01 0.0
3.000000e-01 1.000000e-01 0.0
3.250000e-01 1.000000e-01 0.0
3.500000e-01 1.000000e-01 0.0
3.750000e-01 1.000000e-01 0.0
4.000000e-01 1.000000e-01 0.0
4.250000e-01 1.000000e-01 0.0
4.500000e-01 1.000000e-01 0.0
4.750000e-01 1.000000e-01 0.0
5.000000e-01 1.000000e-01 0.0
5.250000e-01 1.000000e-01 0.0
5.500000e-01 1.000000e-01 0.0
5.750000e-01 1.000000e-01 0.0
6.000000e-01 1.000000e-01 0.0
6.250000e-01 1.000000e-01 0.0
6.500000e-01 1.000000e-01 0.0
6.750000e-01 1.000000e-01 0.0
7.000000e-01 1.000000e-01 0.0
7.250000e-01 1.000000e-01 0.0
7.500000e-01 1.000000e-01 0.0
7.750000e-01 1.000000e-01 0.0
8.000000e-01 1.000000e-01 0.0
8.250000e-01 1.000000e-01 0.0
8.500000e-01 1.000000e-01 0.0
8.750000e-01 1.000000e-01 0.0
9.000000e-01 1.000000e-01 0.0
9.250000e-01 1.000000e-01 0.0
9.500000e-01 1.000000e-01 0.0
9.750000e-01 1.000000e-01 0.0
1.000000e+00 1.000000e-01 0.0
0.000000e+00 1.250000e-01 0.0
2.500000e-02 1.250000e-01 0.0
5.000000e-02 1.250000e-01 0.0
7.500000e-02 1.250000e-01 0.0
1.000000e-01 1.250000e-01 0.0
1.250000e-01 1.250000e-01 0.0
1.500000e-01 1.250000e-01 0.0
1.750000e-01 1.250000e-01 0.0
2.000000e-01 1.250000e-01 0.0
2.250000e-01 1.250000e-01 0.0
2.500000e-01 1.250000e-01 0.0
2.750000e-01 1.250000e-01 0.0
3.000000e-01 1.250000e-01 0.0
3.250000e-01 1.250000e-01 0.0
3.500000e-01 1.250000e-01 0.0
3.750000e-01 1.250000e-01 0.0
4.000000e-01 1.250000e-01 0.0
4.250000e-01 1.250000e-01 0.0
4.500000e-01 1.250000e-01 0.0
4.750000e-01 1.250000e-01 0.0
5.000000e-01 1.250000e-01 0.0
5.250000e-01 1.250000e-01 0.0
5.500000e-01 1.250000e-01 0.0
5.750000e-01 1.250000e-01 0.0
6.000000e-01 1.250000e-01 0.0
6.250000e-01 1.250000e-01 0.0
6.500000e-01 1.250000e-01 0.0
6.750000e-01 1.250000e-01 0.0
7.000000e-01 1.250000e-01 0.0
7.250000e-01 1.250000e-01 0.0
7.500000e-01 1.250000e-01 0.0
7.750000e-01 1.250000e-01 0.0
8.000000e-01 1.250000e-01 0.0
8.250000e-01 1.250000e-01 0.0
8.500000e-01 1.250000e-01 0.0
8.750000e-01 1.250000e-01 0.0
9.000000e-01 1.250000e-01 0.0
9.250000e-01 1.250000e-01 0.0
9.500000e-01 1.250000e-01 0.0
9.750000e-01 1.250000e-01 0.0
1.000000e+00 1.250000e-01 0.0
0.000000e+00 1.500000e-01 0.0
2.500000e-02 1.500000e-01 0.0
5.000000e-02 1.500000e-01 0.0
7.500000e-02 1.500000e-01 0.0
1.000000e-01 1.500000e-01 0.0
1.250000e-01 1.500000e-01 0.0
1.500000e-01 1.500000e-01 0.0
1.750000e-01 1.500000e-01 0.0
2.000000e-01 1.500000e-01 0.0
2.250000e-01 1.500000e-01 0.0
2.500000e-01 1.500000e-01 0.0
2.750000e-01 1.500000e-01 0.0
3.000000e-01 1.500000e-01 0.0
3.250000e-01 1.500000e-01 0.0
3.500000e-01 1.500000e-01 0.0
3.750000e-01 1.500000e-01 0.0
4.000000e-01 1.500000e-01 0.0
4.250000e-01 1.500000e-01 0.0
4.500000e-01 1.500000e-01 0.0
4.750000e-01 1.500000e-01 0.0
5.000000e-01 1.500000e-01 0.0
5.250000e-01 1.500000e-01 0.0
5.500000e-01 1.500000e-01 0.0
5.750000e-01 1.500000e-01 0.0
6.000000e-01 1.500000e-01 0.0
6.250000e-01 1.500000e-01 0.0
6.500000e-01 1.500000e-01 0.0
6.750000e-01 1.500000e-01 0.0
7.000000e-01 1.500000e-01 0.0
7.250000e-01 1.500000e-01 0.0
7.500000e-01 1.500000e-01 0.0
7.750000e-01 1.500000e-01 0.0
8.000000e-01 1.500000e-01 0.0
8.250000e-01 1.500000e-01 0.0
8.500000e-01 1.500000e-01 0.0
8.750000e-01 1.500000e-01 0.0
9.000000e-01 1.500000e-01 0.0
9.250000e-01 1.500000e-01 0.0
9.500000e-01 1.500000e-01 0.0
9.750000e-01 1.500000e-01 0.0
1.000000e+00 1.500000e-01 0.0
0.000000e+00 1.750000e-01 0.0
2.500000e-02 1.750000e-01 0.0
5.000000e-02 1.750000e-01 0.0
7.500000e-02 1.750000e-01 0.0
1.000000e-01 1.750000e-01 0.0
1.250000e-01 1.750000e-01 0.0
1.500000e-01 1.750000e-01 0.0
1.750000e-01 1.750000e-01 0.0
2.000000e-01 1.750000e-01 0.0
2.250000e-01 1.750000e-01 0.0
2.500000e-01 1.750000e-01 0.0
2.750000e-01 1.750000e-01 0.0
3.000000e-01 1.750000e-01 0.0
3.250000e-01 1.750000e-01 0.0
3.500000e-01 1.750000e-01 0.0
3.750000e-01 1.750000e-01 0.0
4.000000e-01 1.750000e-01 0.0
4.250000e-01 1.750000e-01 0.0
4.500000e-01 1.750000e-01 0.0
4.750000e-01 1.750000e-01 0.0
5.000000e-01 1.750000e-01 0.0
5.250000e-01 1.750000e-01 0.0
5.500000e-01 1.750000e-01 0.0
5.750000e-01 1.750000e-01 0.0
6.000000e-01 1.750000e-01 0.0
6.250000e-01 1.750000e-01 0.0
6.500000e-01 1.750000e-01 0.0
6.750000e-01 1.750000e-01 0.0
7.000000e-01 1.750000e-01 0.0
7.250000e-01 1.750000e-01 0.0
7.500000e-01 1.750000e-01 0.0
7.750000e-01 1.750000e-01 0.0
8.000000e-01 1.750000e-01 0.0
8.250000e-01 1.750000e-01 0.0
8.500000e-01 1.750000e-01 0.0
8.750000e-01 1.750000e-01 0.0
9.000000e-01 1.750000e-01 0.0
9.250000e-01 1.750000e-01 0.0
9.500000e-01 1.750000e-01 0.0
9.750000e-01 1.750000e-01 0.0
1.000000e+00 1.750000e-01 0.0
[...]
CELL_DATA 1600
SCALARS Temperature double 1
LOOKUP_TABLE default
5.000000e-01
1.827370e-01
7.438830e-02
3.387218e-02
1.672975e-02
8.659197e-03
4.594569e-03
2.472834e-03
1.344075e-03
7.364295e-04
4.063351e-04
2.256060e-04
1.259603e-04
7.067823e-05
3.986297e-05
2.259887e-05
1.287299e-05
7.363812e-06
4.227716e-06
2.434842e-06
1.406126e-06
8.140844e-07
4.724709e-07
2.748670e-07
1.602766e-07
9.365907e-08
5.483801e-08
3.216543e-08
1.889780e-08
1.112008e-08
6.553503e-09
3.868632e-09
2.288345e-09
1.357749e-09
8.101976e-10
4.855696e-10
2.871916e-10
1.386017e-10
9.601259e-11
6.650915e-11
8.172630e-01
5.000000e-01
2.771202e-01
1.470041e-01
7.732240e-02
4.101572e-02
2.205030e-02
1.200434e-02
6.601505e-03
3.658823e-03
2.040496e-03
1.143855e-03
6.440871e-04
3.641482e-04
2.071339e-04
1.184087e-04
6.794652e-05
3.911039e-05
2.257244e-05
1.305878e-05
7.571299e-06
4.399823e-06
2.563091e-06
1.496617e-06
8.757139e-07
5.133382e-07
3.013987e-07
1.772170e-07
1.043381e-07
6.150573e-08
3.629948e-08
2.144843e-08
1.268927e-08
7.518963e-09
4.465424e-09
2.659173e-09
1.584298e-09
9.245941e-10
5.517063e-10
3.013457e-10
9.256117e-01
7.228798e-01
5.000000e-01
3.167266e-01
1.898918e-01
1.103853e-01
6.320173e-02
3.597184e-02
2.045010e-02
1.163775e-02
6.634947e-03
3.790489e-03
2.169909e-03
1.244651e-03
7.150697e-04
4.116571e-04
2.375246e-04
1.373576e-04
7.959802e-05
4.621501e-05
2.688057e-05
1.567379e-05
9.163078e-06
5.368022e-06
3.150070e-06
1.851216e-06
1.089329e-06
6.417680e-07
3.785067e-07
2.234667e-07
1.320594e-07
7.811351e-08
4.624671e-08
2.741040e-08
1.626867e-08
9.671337e-09
5.757058e-09
3.421700e-09
2.027536e-09
1.108858e-09
9.661278e-01
8.529959e-01
6.832734e-01
5.000000e-01
3.407212e-01
2.204222e-01
1.375494e-01
8.379809e-02
5.026720e-02
2.986086e-02
1.763175e-02
1.037231e-02
6.087981e-03
3.568510e-03
2.089981e-03
1.223574e-03
7.163454e-04
4.195216e-04
2.458197e-04
1.441333e-04
8.457196e-05
4.965506e-05
2.917633e-05
1.716031e-05
1.010376e-05
5.955216e-06
3.513527e-06
2.074879e-06
1.226366e-06
7.254411e-07
4.294559e-07
2.544204e-07
1.508321e-07
8.952060e-08
5.319728e-08
3.164713e-08
1.884543e-08
1.122820e-08
6.668629e-09
3.692906e-09
9.832702e-01
9.226776e-01
8.101082e-01
6.592788e-01
5.000000e-01
3.573637e-01
2.436457e-01
1.602038e-01
1.025161e-01
6.429969e-02
3.974284e-02
2.430294e-02
1.474511e-02
8.894360e-03
5.341844e-03
3.197693e-03
1.909414e-03
1.138033e-03
6.773557e-04
4.027680e-04
2.393311e-04
1.421460e-04
8.439838e-05
5.010441e-05
2.974636e-05
1.766302e-05
1.049079e-05
6.232868e-06
3.704403e-06
2.202453e-06
1.309957e-06
7.794189e-07
4.639256e-07
2.762239e-07
1.645269e-07
9.804526e-08
5.845938e-08
3.487154e-08
2.074741e-08
1.156623e-08
9.913408e-01
9.589843e-01
8.896147e-01
7.795778e-01
6.426363e-01
5.000000e-01
3.697661e-01
2.620390e-01
1.793453e-01
1.193734e-01
7.772170e-02
4.973258e-02
3.139237e-02
1.960443e-02
1.213964e-02
7.466678e-03
4.567716e-03
2.782114e-03
1.688558e-03
1.021909e-03
6.170169e-04
3.718412e-04
2.237399e-04
1.344561e-04
8.071920e-05
4.842026e-05
2.902760e-05
1.739381e-05
1.041912e-05
6.239681e-06
3.736131e-06
2.236851e-06
1.339148e-06
8.016905e-07
4.799376e-07
2.873328e-07
1.720410e-07
1.030142e-07
6.152429e-08
3.451543e-08
9.954054e-01
9.779497e-01
9.367983e-01
8.624506e-01
7.563543e-01
6.302339e-01
5.000000e-01
3.794555e-01
2.770469e-01
1.957328e-01
1.345325e-01
9.038619e-02
5.959946e-02
3.869976e-02
2.481401e-02
1.574635e-02
9.906973e-03
6.188898e-03
3.843351e-03
2.374923e-03
1.461420e-03
8.961266e-04
5.478558e-04
3.340874e-04
2.032893e-04
1.234722e-04
7.487632e-05
4.534643e-05
2.743174e-05
1.657869e-05
1.001146e-05
6.041553e-06
3.643756e-06
2.196529e-06
1.323557e-06
7.972509e-07
4.800871e-07
2.889983e-07
1.734753e-07
9.792139e-08
9.975272e-01
9.879957e-01
9.640282e-01
9.162019e-01
8.397962e-01
7.379610e-01
6.205445e-01
5.000000e-01
3.872877e-01
2.895801e-01
2.099351e-01
1.481926e-01
1.022541e-01
6.920570e-02
4.607873e-02
3.025906e-02
1.963954e-02
1.262122e-02
8.042857e-03
5.088571e-03
3.199683e-03
2.001338e-03
1.246098e-03
7.728045e-04
4.776379e-04
2.943287e-04
1.808993e-04
1.109315e-04
6.789070e-05
4.147735e-05
2.530173e-05
1.541377e-05
9.379025e-06
5.701080e-06
3.462262e-06
2.100932e-06
1.273948e-06
7.719106e-07
4.662287e-07
2.650052e-07
9.986559e-01
9.933985e-01
9.795499e-01
9.497328e-01
8.974839e-01
8.206547e-01
7.229531e-01
6.127123e-01
5.000000e-01
3.937847e-01
3.002433e-01
2.223795e-01
1.605466e-01
1.133412e-01
7.847416e-02
5.342578e-02
3.584699e-02
2.375152e-02
1.556701e-02
1.010709e-02
6.508679e-03
4.161654e-03
2.644469e-03
1.671270e-03
1.051185e-03
6.583904e-04
4.108417e-04
2.555276e-04
1.584658e-04
9.801871e-05
6.048979e-05
3.725321e-05
2.290073e-05
1.405474e-05
8.613084e-06
5.271348e-06
3.222310e-06
1.967422e-06
1.196948e-06
6.857844e-07
9.992636e-01
9.963412e-01
9.883622e-01
9.701391e-01
9.357003e-01
8.806266e-01
8.042672e-01
7.104199e-01
6.062153e-01
5.000000e-01
3.992845e-01
3.094544e-01
2.333900e-01
1.717668e-01
1.236889e-01
8.736633e-02
6.066963e-02
4.150513e-02
2.802359e-02
1.870378e-02
1.235729e-02
8.091563e-03
5.256710e-03
3.391295e-03
2.174365e-03
1.386484e-03
8.797813e-04
5.558287e-04
3.497952e-04
2.193662e-04
1.371398e-04
8.549339e-05
5.316161e-05
3.298130e-05
2.041913e-05
1.261802e-05
7.784010e-06
4.793926e-06
2.940631e-06
1.700039e-06
9.995937e-01
9.979595e-01
9.933651e-01
9.823682e-01
9.602572e-01
9.222783e-01
8.654675e-01
7.900649e-01
6.997567e-01
6.007155e-01
5.000000e-01
4.040170e-01
3.175125e-01
2.432152e-01
1.820016e-01
1.333496e-01
9.586795e-02
6.776255e-02
4.717755e-02
3.240619e-02
2.199428e-02
1.476903e-02
9.823345e-03
6.478560e-03
4.240355e-03
2.756619e-03
1.781178e-03
1.144624e-03
7.319490e-04
4.659844e-04
2.954751e-04
1.866786e-04
1.175547e-04
7.380542e-05
4.621221e-05
2.886359e-05
1.798708e-05
1.118465e-05
6.923793e-06
4.042981e-06
9.997744e-01
9.988561e-01
9.962095e-01
9.896277e-01
9.756971e-01
9.502674e-01
9.096138e-01
8.518074e-01
7.776205e-01
6.905456e-01
5.959830e-01
5.000000e-01
4.081446e-01
3.246378e-01
2.520492e-01
1.913776e-01
1.423783e-01
1.039797e-01
7.467386e-02
5.282184e-02
3.685825e-02
2.540528e-02
1.731872e-02
1.168934e-02
7.819427e-03
5.188649e-03
3.417978e-03
2.236784e-03
1.455090e-03
9.414742e-04
6.061712e-04
3.885468e-04
2.480419e-04
1.577594e-04
9.999830e-05
6.318909e-05
3.981564e-05
2.501949e-05
1.564409e-05
9.235467e-06
9.998740e-01
9.993559e-01
9.978301e-01
9.939120e-01
9.852549e-01
9.686076e-01
9.404005e-01
8.977459e-01
8.394534e-01
7.666100e-01
6.824875e-01
5.918554e-01
5.000000e-01
4.117852e-01
3.309959e-01
2.600452e-01
2.000019e-01
1.508288e-01
1.117113e-01
8.138499e-02
5.840638e-02
4.134616e-02
2.890764e-02
1.998434e-02
1.367473e-02
9.270614e-03
6.232012e-03
4.157294e-03
2.753947e-03
1.812724e-03
1.186265e-03
7.721893e-04
5.002116e-04
3.225885e-04
2.071900e-04
1.325738e-04
8.453642e-05
5.372721e-05
3.396013e-05
2.028688e-05
9.999293e-01
9.996359e-01
9.987553e-01
9.964315e-01
9.911056e-01
9.803956e-01
9.613002e-01
9.307943e-01
8.866588e-01
8.282332e-01
7.567848e-01
6.753622e-01
5.882148e-01
5.000000e-01
4.150272e-01
3.367144e-01
2.673256e-01
2.079653e-01
1.587515e-01
1.190775e-01
8.788601e-02
6.390798e-02
4.584274e-02
3.247618e-02
2.274569e-02
1.576510e-02
1.082295e-02
7.365445e-03
4.972541e-03
3.332542e-03
2.218480e-03
1.467771e-03
9.656093e-04
6.319497e-04
4.116050e-04
2.669060e-04
1.723697e-04
1.108847e-04
7.090508e-05
4.289635e-05
9.999601e-01
9.997929e-01
9.992849e-01
9.979100e-01
9.946582e-01
9.878604e-01
9.751860e-01
9.539213e-01
9.215258e-01
8.763111e-01
8.179984e-01
7.479508e-01
6.690041e-01
5.849728e-01
5.000000e-01
4.179381e-01
3.418931e-01
2.739897e-01
2.153447e-01
1.661930e-01
1.260961e-01
9.417300e-02
6.930997e-02
5.032624e-02
3.608938e-02
2.558453e-02
1.794669e-02
1.246712e-02
8.583394e-03
5.861000e-03
3.971793e-03
2.672773e-03
1.787039e-03
1.187730e-03
7.850725e-04
5.162851e-04
3.379236e-04
2.201885e-04
1.425385e-04
8.739844e-05
9.999774e-01
9.998816e-01
9.995883e-01
9.987764e-01
9.968023e-01
9.925333e-01
9.842537e-01
9.697409e-01
9.465742e-01
9.126337e-01
8.666504e-01
8.086224e-01
7.399548e-01
6.632856e-01
5.820619e-01
5.000000e-01
4.205705e-01
3.466115e-01
2.801188e-01
2.222060e-01
1.731954e-01
1.327858e-01
1.002463e-01
7.460077e-02
5.477936e-02
3.972900e-02
2.848460e-02
2.020663e-02
1.419394e-02
9.879981e-03
6.819438e-03
4.670380e-03
3.175540e-03
2.144740e-03
1.439578e-03
9.607118e-04
6.377116e-04
4.211534e-04
2.761741e-04
1.717451e-04
9.999871e-01
9.999321e-01
9.997625e-01
9.992837e-01
9.980906e-01
9.954323e-01
9.900930e-01
9.803605e-01
9.641530e-01
9.393304e-01
9.041320e-01
8.576217e-01
7.999981e-01
7.326744e-01
6.581069e-01
5.794295e-01
5.000000e-01
4.229659e-01
3.509336e-01
2.857800e-01
2.286052e-01
1.797969e-01
1.391656e-01
1.061090e-01
7.977265e-02
5.918853e-02
4.337969e-02
3.143154e-02
2.253301e-02
1.599449e-02
1.124918e-02
7.844255e-03
5.426546e-03
3.726301e-03
2.541199e-03
1.721917e-03
1.159809e-03
7.767564e-04
5.162701e-04
3.258209e-04
9.999926e-01
9.999609e-01
9.998626e-01
9.995805e-01
9.988620e-01
9.972179e-01
9.938111e-01
9.873788e-01
9.762485e-01
9.584949e-01
9.322375e-01
8.960203e-01
8.491712e-01
7.920347e-01
7.260103e-01
6.533885e-01
5.770341e-01
5.000000e-01
4.251577e-01
3.549117e-01
2.910295e-01
2.345907e-01
1.860315e-01
1.452543e-01
1.117663e-01
8.482087e-02
6.354321e-02
4.702860e-02
3.441270e-02
2.491495e-02
1.786029e-02
1.268497e-02
8.931608e-03
6.238189e-03
4.324226e-03
2.976427e-03
2.035248e-03
1.382955e-03
9.321034e-04
5.973174e-04
9.999958e-01
9.999774e-01
9.999204e-01
9.997542e-01
9.993226e-01
9.983114e-01
9.961566e-01
9.919571e-01
9.844330e-01
9.719764e-01
9.528225e-01
9.253261e-01
8.882887e-01
8.412485e-01
7.846553e-01
7.198812e-01
6.490664e-01
5.748423e-01
5.000000e-01
4.271732e-01
3.585889e-01
2.959144e-01
2.402041e-01
1.919301e-01
1.510698e-01
1.172245e-01
8.974297e-02
6.783535e-02
5.066506e-02
3.741709e-02
2.734254e-02
1.978332e-02
1.418142e-02
1.007752e-02
7.102951e-03
4.968187e-03
3.450138e-03
2.379556e-03
1.627046e-03
1.059219e-03
9.999976e-01
9.999869e-01
9.999538e-01
9.998559e-01
9.995972e-01
9.989781e-01
9.976251e-01
9.949114e-01
9.898929e-01
9.812962e-01
9.675938e-01
9.471782e-01
9.186150e-01
8.809225e-01
8.338070e-01
7.777940e-01
7.142200e-01
6.450883e-01
5.728268e-01
5.000000e-01
4.290348e-01
3.620012e-01
3.004746e-01
2.454818e-01
1.975202e-01
1.566293e-01
1.224907e-01
9.453817e-02
7.205889e-02
5.428024e-02
4.043512e-02
2.980688e-02
2.175611e-02
1.573280e-02
1.127796e-02
8.018287e-03
5.656780e-03
3.961327e-03
2.748814e-03
1.818649e-03
9.999986e-01
9.999924e-01
9.999731e-01
9.999154e-01
9.997607e-01
9.993830e-01
9.985386e-01
9.968003e-01
9.934913e-01
9.876427e-01
9.780057e-01
9.631418e-01
9.415936e-01
9.121140e-01
8.739039e-01
8.268046e-01
7.713948e-01
7.089705e-01
6.414111e-01
5.709652e-01
5.000000e-01
4.307609e-01
3.651789e-01
3.047444e-01
2.504553e-01
2.028266e-01
1.619486e-01
1.275726e-01
9.920699e-02
7.620942e-02
5.786692e-02
4.345854e-02
3.229995e-02
2.377169e-02
1.733358e-02
1.252891e-02
8.981466e-03
6.387644e-03
4.499547e-03
3.026426e-03
9.999992e-01
9.999956e-01
9.999843e-01
9.999503e-01
9.998579e-01
9.996282e-01
9.991039e-01
9.979987e-01
9.958383e-01
9.919084e-01
9.852310e-01
9.745947e-01
9.586538e-01
9.360920e-01
9.058270e-01
8.672142e-01
8.202031e-01
7.654093e-01
7.040856e-01
6.379988e-01
5.692391e-01
5.000000e-01
4.323674e-01
3.681474e-01
3.087532e-01
2.551523e-01
2.078714e-01
1.670429e-01
1.324778e-01
1.037509e-01
8.028385e-02
6.141920e-02
4.648021e-02
3.481462e-02
2.582369e-02
1.897853e-02
1.382630e-02
9.988483e-03
7.144035e-03
4.886183e-03
9.999995e-01
9.999974e-01
9.999908e-01
9.999708e-01
9.999156e-01
9.997763e-01
9.994521e-01
9.987539e-01
9.973555e-01
9.947433e-01
9.901767e-01
9.826813e-01
9.710924e-01
9.541573e-01
9.306900e-01
8.997537e-01
8.608344e-01
8.139685e-01
7.597959e-01
6.995254e-01
6.348212e-01
5.676326e-01
5.000000e-01
4.338672e-01
3.709289e-01
3.125262e-01
2.595971e-01
2.126748e-01
1.719262e-01
1.372141e-01
1.081722e-01
8.428015e-02
6.493234e-02
4.949405e-02
3.734450e-02
2.790620e-02
2.066253e-02
1.516436e-02
1.101405e-02
7.661503e-03
9.999997e-01
9.999985e-01
9.999946e-01
9.999828e-01
9.999499e-01
9.998655e-01
9.996659e-01
9.992272e-01
9.983287e-01
9.966087e-01
9.935214e-01
9.883107e-01
9.800157e-01
9.675238e-01
9.496738e-01
9.253992e-01
8.938910e-01
8.547457e-01
8.080699e-01
7.545182e-01
6.952556e-01
6.318526e-01
5.661328e-01
5.000000e-01
4.352718e-01
3.735419e-01
3.160857e-01
2.638111e-01
2.172546e-01
1.766114e-01
1.417890e-01
1.124734e-01
8.819715e-02
6.840254e-02
5.249485e-02
3.988394e-02
3.001363e-02
2.237811e-02
1.650670e-02
1.167919e-02
9.999998e-01
9.999991e-01
9.999968e-01
9.999899e-01
9.999703e-01
9.999193e-01
9.997967e-01
9.995224e-01
9.989488e-01
9.978256e-01
9.957596e-01
9.921806e-01
9.863253e-01
9.772543e-01
9.639106e-01
9.452206e-01
9.202274e-01
8.882337e-01
8.489302e-01
8.024798e-01
7.495447e-01
6.912468e-01
6.290711e-01
5.647282e-01
5.000000e-01
4.365907e-01
3.760030e-01
3.194509e-01
2.678135e-01
2.216273e-01
1.811106e-01
1.462099e-01
1.166576e-01
9.203437e-02
7.182683e-02
5.547813e-02
4.242760e-02
3.213705e-02
2.407488e-02
1.732676e-02
9.999999e-01
9.999995e-01
9.999981e-01
9.999940e-01
9.999823e-01
9.999516e-01
9.998765e-01
9.997057e-01
9.993416e-01
9.986135e-01
9.972434e-01
9.948114e-01
9.907294e-01
9.842349e-01
9.744155e-01
9.602710e-01
9.408115e-01
9.151791e-01
8.827755e-01
8.433707e-01
7.971734e-01
7.448477e-01
6.874738e-01
6.264581e-01
5.634093e-01
5.000000e-01
4.378323e-01
3.783261e-01
3.226388e-01
2.716211e-01
2.258074e-01
1.854351e-01
1.504840e-01
1.207282e-01
9.579186e-02
7.520287e-02
5.843967e-02
4.496549e-02
3.420900e-02
2.504274e-02
9.999999e-01
9.999997e-01
9.999989e-01
9.999965e-01
9.999895e-01
9.999710e-01
9.999251e-01
9.998191e-01
9.995892e-01
9.991202e-01
9.982188e-01
9.965820e-01
9.937680e-01
9.891771e-01
9.820533e-01
9.715154e-01
9.566203e-01
9.364568e-01
9.102570e-01
8.775093e-01
8.380514e-01
7.921286e-01
7.404029e-01
6.839143e-01
6.239970e-01
5.621677e-01
5.000000e-01
4.390038e-01
3.805237e-01
3.256643e-01
2.752491e-01
2.298085e-01
1.895952e-01
1.546181e-01
1.246885e-01
9.947007e-02
7.852829e-02
6.136878e-02
4.740983e-02
3.529866e-02
1.000000e+00
9.999998e-01
9.999994e-01
9.999979e-01
9.999938e-01
9.999826e-01
9.999547e-01
9.998891e-01
9.997445e-01
9.994442e-01
9.988554e-01
9.977632e-01
9.958427e-01
9.926346e-01
9.875329e-01
9.797934e-01
9.685685e-01
9.529714e-01
9.321647e-01
9.054618e-01
8.724274e-01
8.329571e-01
7.873252e-01
7.361889e-01
6.805491e-01
6.216739e-01
5.609962e-01
5.000000e-01
4.401117e-01
3.826066e-01
3.285408e-01
2.787111e-01
2.336426e-01
1.936004e-01
1.586188e-01
1.285419e-01
1.030689e-01
8.179194e-02
6.415413e-02
4.857332e-02
1.000000e+00
9.999999e-01
9.999996e-01
9.999988e-01
9.999963e-01
9.999896e-01
9.999726e-01
9.999321e-01
9.998415e-01
9.996502e-01
9.992681e-01
9.985449e-01
9.972461e-01
9.950275e-01
9.914166e-01
9.858061e-01
9.774670e-01
9.655873e-01
9.493349e-01
9.279411e-01
9.007930e-01
8.675222e-01
8.280738e-01
7.827454e-01
7.321865e-01
6.773612e-01
6.194763e-01
5.598883e-01
5.000000e-01
4.411614e-01
3.845846e-01
3.312800e-01
2.820192e-01
2.373208e-01
1.974597e-01
1.624922e-01
1.322909e-01
1.065769e-01
8.485580e-02
6.532038e-02
1.000000e+00
9.999999e-01
9.999998e-01
9.999993e-01
9.999978e-01
9.999938e-01
9.999834e-01
9.999585e-01
9.999020e-01
9.997806e-01
9.995340e-01
9.990585e-01
9.981873e-01
9.966675e-01
9.941390e-01
9.901200e-01
9.840055e-01
9.750851e-01
9.625829e-01
9.457198e-01
9.237906e-01
8.962491e-01
8.627859e-01
8.233886e-01
7.783727e-01
7.283789e-01
6.743357e-01
6.173934e-01
5.588386e-01
5.000000e-01
4.421579e-01
3.864660e-01
3.338925e-01
2.851843e-01
2.408531e-01
2.011813e-01
1.662428e-01
1.359231e-01
1.098263e-01
8.593217e-02
1.000000e+00
1.000000e+00
9.999999e-01
9.999996e-01
9.999987e-01
9.999963e-01
9.999900e-01
9.999747e-01
9.999395e-01
9.998629e-01
9.997045e-01
9.993938e-01
9.988137e-01
9.977815e-01
9.960282e-01
9.931806e-01
9.887508e-01
9.821397e-01
9.726575e-01
9.595649e-01
9.421331e-01
9.197162e-01
8.918278e-01
8.582110e-01
8.188894e-01
7.741926e-01
7.247509e-01
6.714592e-01
6.154154e-01
5.578421e-01
5.000000e-01
4.431055e-01
3.882585e-01
3.363877e-01
2.882165e-01
2.442486e-01
2.047708e-01
1.698569e-01
1.392392e-01
1.107029e-01
1.000000e+00
1.000000e+00
9.999999e-01
9.999997e-01
9.999992e-01
9.999978e-01
9.999940e-01
9.999846e-01
9.999627e-01
9.999145e-01
9.998133e-01
9.996115e-01
9.992278e-01
9.985322e-01
9.973272e-01
9.953296e-01
9.921557e-01
9.873150e-01
9.802167e-01
9.701931e-01
9.565415e-01
9.385808e-01
9.157199e-01
8.875266e-01
8.537901e-01
8.145649e-01
7.701915e-01
7.212889e-01
6.687200e-01
6.135340e-01
5.568945e-01
5.000000e-01
4.440081e-01
3.899689e-01
3.387741e-01
2.911244e-01
2.475135e-01
2.082125e-01
1.731019e-01
1.397959e-01
1.000000e+00
1.000000e+00
1.000000e+00
9.999998e-01
9.999995e-01
9.999987e-01
9.999964e-01
9.999906e-01
9.999771e-01
9.999468e-01
9.998824e-01
9.997520e-01
9.994998e-01
9.990344e-01
9.982130e-01
9.968245e-01
9.945735e-01
9.910684e-01
9.858186e-01
9.782439e-01
9.677000e-01
9.535198e-01
9.350677e-01
9.118029e-01
8.833424e-01
8.495160e-01
8.104048e-01
7.663574e-01
7.179808e-01
6.661075e-01
6.117415e-01
5.559919e-01
5.000000e-01
4.448691e-01
3.916031e-01
3.410591e-01
2.939137e-01
2.506289e-01
2.112402e-01
1.732173e-01
1.000000e+00
1.000000e+00
1.000000e+00
9.999999e-01
9.999997e-01
9.999992e-01
9.999978e-01
9.999943e-01
9.999859e-01
9.999670e-01
9.999262e-01
9.998422e-01
9.996774e-01
9.993681e-01
9.988123e-01
9.978553e-01
9.962737e-01
9.937618e-01
9.899225e-01
9.842672e-01
9.762283e-01
9.651854e-01
9.505059e-01
9.315975e-01
9.079656e-01
8.792718e-01
8.453819e-01
8.063996e-01
7.626792e-01
7.148157e-01
6.636123e-01
6.100311e-01
5.551309e-01
5.000000e-01
4.456916e-01
3.931665e-01
3.432466e-01
2.965615e-01
2.532956e-01
2.108017e-01
1.000000e+00
1.000000e+00
1.000000e+00
9.999999e-01
9.999998e-01
9.999995e-01
9.999987e-01
9.999965e-01
9.999914e-01
9.999796e-01
9.999538e-01
9.999000e-01
9.997928e-01
9.995884e-01
9.992149e-01
9.985604e-01
9.974588e-01
9.956758e-01
9.928970e-01
9.887220e-01
9.826664e-01
9.741763e-01
9.626555e-01
9.475052e-01
9.281732e-01
9.042081e-01
8.753115e-01
8.413812e-01
8.025403e-01
7.591469e-01
7.117835e-01
6.612259e-01
6.083969e-01
5.543084e-01
5.000000e-01
4.464780e-01
3.946606e-01
3.453091e-01
2.987380e-01
2.522092e-01
1.000000e+00
1.000000e+00
1.000000e+00
1.000000e+00
9.999999e-01
9.999997e-01
9.999992e-01
9.999979e-01
9.999947e-01
9.999874e-01
9.999711e-01
9.999368e-01
9.998674e-01
9.997331e-01
9.994837e-01
9.990393e-01
9.982781e-01
9.970236e-01
9.950318e-01
9.919817e-01
9.874711e-01
9.810215e-01
9.720938e-01
9.601161e-01
9.445219e-01
9.247971e-01
9.005299e-01
8.714581e-01
8.375078e-01
7.988187e-01
7.557514e-01
7.088756e-01
6.589409e-01
6.068335e-01
5.535220e-01
5.000000e-01
4.472277e-01
3.960532e-01
3.468906e-01
2.969371e-01
1.000000e+00
1.000000e+00
1.000000e+00
1.000000e+00
9.999999e-01
9.999998e-01
9.999995e-01
9.999987e-01
9.999968e-01
9.999922e-01
9.999820e-01
9.999602e-01
9.999155e-01
9.998276e-01
9.996621e-01
9.993623e-01
9.988402e-01
9.979648e-01
9.965499e-01
9.943432e-01
9.910185e-01
9.861737e-01
9.793375e-01
9.699864e-01
9.575724e-01
9.415603e-01
9.214717e-01
8.969311e-01
8.677091e-01
8.337572e-01
7.952292e-01
7.524865e-01
7.060863e-01
6.567534e-01
6.053394e-01
5.527723e-01
5.000000e-01
4.479074e-01
3.969707e-01
3.443465e-01
1.000000e+00
1.000000e+00
1.000000e+00
1.000000e+00
1.000000e+00
9.999999e-01
9.999997e-01
9.999992e-01
9.999980e-01
9.999952e-01
9.999888e-01
9.999750e-01
9.999463e-01
9.998891e-01
9.997798e-01
9.995788e-01
9.992232e-01
9.986170e-01
9.976204e-01
9.960387e-01
9.936124e-01
9.900115e-01
9.848356e-01
9.776219e-01
9.678629e-01
9.550345e-01
9.386312e-01
9.182081e-01
8.934231e-01
8.640769e-01
8.301431e-01
7.917875e-01
7.493711e-01
7.034385e-01
6.546909e-01
6.039468e-01
5.520926e-01
5.000000e-01
4.481662e-01
3.937299e-01
1.000000e+00
1.000000e+00
1.000000e+00
1.000000e+00
1.000000e+00
9.999999e-01
9.999998e-01
9.999995e-01
9.999988e-01
9.999971e-01
9.999931e-01
9.999844e-01
9.999660e-01