# vtk DataFile Version 3.0
10.TVD-MUSCLprimescheme,Pe = 100,Grid 81x81,005208.vtk
ASCII
DATASET STRUCTURED_GRID
DIMENSIONS 81 81 1
POINTS 6561 double
0.000000e+00 0.000000e+00 0.0
1.250000e-02 0.000000e+00 0.0
2.500000e-02 0.000000e+00 0.0
3.750000e-02 0.000000e+00 0.0
5.000000e-02 0.000000e+00 0.0
6.250000e-02 0.000000e+00 0.0
7.500000e-02 0.000000e+00 0.0
8.750000e-02 0.000000e+00 0.0
1.000000e-01 0.000000e+00 0.0
1.125000e-01 0.000000e+00 0.0
1.250000e-01 0.000000e+00 0.0
1.375000e-01 0.000000e+00 0.0
1.500000e-01 0.000000e+00 0.0
1.625000e-01 0.000000e+00 0.0
1.750000e-01 0.000000e+00 0.0
1.875000e-01 0.000000e+00 0.0
2.000000e-01 0.000000e+00 0.0
2.125000e-01 0.000000e+00 0.0
2.250000e-01 0.000000e+00 0.0
2.375000e-01 0.000000e+00 0.0
2.500000e-01 0.000000e+00 0.0
2.625000e-01 0.000000e+00 0.0
2.750000e-01 0.000000e+00 0.0
2.875000e-01 0.000000e+00 0.0
3.000000e-01 0.000000e+00 0.0
3.125000e-01 0.000000e+00 0.0
3.250000e-01 0.000000e+00 0.0
3.375000e-01 0.000000e+00 0.0
3.500000e-01 0.000000e+00 0.0
3.625000e-01 0.000000e+00 0.0
3.750000e-01 0.000000e+00 0.0
3.875000e-01 0.000000e+00 0.0
4.000000e-01 0.000000e+00 0.0
4.125000e-01 0.000000e+00 0.0
4.250000e-01 0.000000e+00 0.0
4.375000e-01 0.000000e+00 0.0
4.500000e-01 0.000000e+00 0.0
4.625000e-01 0.000000e+00 0.0
4.750000e-01 0.000000e+00 0.0
4.875000e-01 0.000000e+00 0.0
5.000000e-01 0.000000e+00 0.0
5.125000e-01 0.000000e+00 0.0
5.250000e-01 0.000000e+00 0.0
5.375000e-01 0.000000e+00 0.0
5.500000e-01 0.000000e+00 0.0
5.625000e-01 0.000000e+00 0.0
5.750000e-01 0.000000e+00 0.0
5.875000e-01 0.000000e+00 0.0
6.000000e-01 0.000000e+00 0.0
6.125000e-01 0.000000e+00 0.0
6.250000e-01 0.000000e+00 0.0
6.375000e-01 0.000000e+00 0.0
6.500000e-01 0.000000e+00 0.0
6.625000e-01 0.000000e+00 0.0
6.750000e-01 0.000000e+00 0.0
6.875000e-01 0.000000e+00 0.0
7.000000e-01 0.000000e+00 0.0
7.125000e-01 0.000000e+00 0.0
7.250000e-01 0.000000e+00 0.0
7.375000e-01 0.000000e+00 0.0
7.500000e-01 0.000000e+00 0.0
7.625000e-01 0.000000e+00 0.0
7.750000e-01 0.000000e+00 0.0
7.875000e-01 0.000000e+00 0.0
8.000000e-01 0.000000e+00 0.0
8.125000e-01 0.000000e+00 0.0
8.250000e-01 0.000000e+00 0.0
8.375000e-01 0.000000e+00 0.0
8.500000e-01 0.000000e+00 0.0
8.625000e-01 0.000000e+00 0.0
8.750000e-01 0.000000e+00 0.0
8.875000e-01 0.000000e+00 0.0
9.000000e-01 0.000000e+00 0.0
9.125000e-01 0.000000e+00 0.0
9.250000e-01 0.000000e+00 0.0
9.375000e-01 0.000000e+00 0.0
9.500000e-01 0.000000e+00 0.0
9.625000e-01 0.000000e+00 0.0
9.750000e-01 0.000000e+00 0.0
9.875000e-01 0.000000e+00 0.0
1.000000e+00 0.000000e+00 0.0
0.000000e+00 1.250000e-02 0.0
1.250000e-02 1.250000e-02 0.0
2.500000e-02 1.250000e-02 0.0
3.750000e-02 1.250000e-02 0.0
5.000000e-02 1.250000e-02 0.0
6.250000e-02 1.250000e-02 0.0
7.500000e-02 1.250000e-02 0.0
8.750000e-02 1.250000e-02 0.0
1.000000e-01 1.250000e-02 0.0
1.125000e-01 1.250000e-02 0.0
1.250000e-01 1.250000e-02 0.0
1.375000e-01 1.250000e-02 0.0
1.500000e-01 1.250000e-02 0.0
1.625000e-01 1.250000e-02 0.0
1.750000e-01 1.250000e-02 0.0
1.875000e-01 1.250000e-02 0.0
2.000000e-01 1.250000e-02 0.0
2.125000e-01 1.250000e-02 0.0
2.250000e-01 1.250000e-02 0.0
2.375000e-01 1.250000e-02 0.0
2.500000e-01 1.250000e-02 0.0
2.625000e-01 1.250000e-02 0.0
2.750000e-01 1.250000e-02 0.0
2.875000e-01 1.250000e-02 0.0
3.000000e-01 1.250000e-02 0.0
3.125000e-01 1.250000e-02 0.0
3.250000e-01 1.250000e-02 0.0
3.375000e-01 1.250000e-02 0.0
3.500000e-01 1.250000e-02 0.0
3.625000e-01 1.250000e-02 0.0
3.750000e-01 1.250000e-02 0.0
3.875000e-01 1.250000e-02 0.0
4.000000e-01 1.250000e-02 0.0
4.125000e-01 1.250000e-02 0.0
4.250000e-01 1.250000e-02 0.0
4.375000e-01 1.250000e-02 0.0
4.500000e-01 1.250000e-02 0.0
4.625000e-01 1.250000e-02 0.0
4.750000e-01 1.250000e-02 0.0
4.875000e-01 1.250000e-02 0.0
5.000000e-01 1.250000e-02 0.0
5.125000e-01 1.250000e-02 0.0
5.250000e-01 1.250000e-02 0.0
5.375000e-01 1.250000e-02 0.0
5.500000e-01 1.250000e-02 0.0
5.625000e-01 1.250000e-02 0.0
5.750000e-01 1.250000e-02 0.0
5.875000e-01 1.250000e-02 0.0
6.000000e-01 1.250000e-02 0.0
6.125000e-01 1.250000e-02 0.0
6.250000e-01 1.250000e-02 0.0
6.375000e-01 1.250000e-02 0.0
6.500000e-01 1.250000e-02 0.0
6.625000e-01 1.250000e-02 0.0
6.750000e-01 1.250000e-02 0.0
6.875000e-01 1.250000e-02 0.0
7.000000e-01 1.250000e-02 0.0
7.125000e-01 1.250000e-02 0.0
7.250000e-01 1.250000e-02 0.0
7.375000e-01 1.250000e-02 0.0
7.500000e-01 1.250000e-02 0.0
7.625000e-01 1.250000e-02 0.0
7.750000e-01 1.250000e-02 0.0
7.875000e-01 1.250000e-02 0.0
8.000000e-01 1.250000e-02 0.0
8.125000e-01 1.250000e-02 0.0
8.250000e-01 1.250000e-02 0.0
8.375000e-01 1.250000e-02 0.0
8.500000e-01 1.250000e-02 0.0
8.625000e-01 1.250000e-02 0.0
8.750000e-01 1.250000e-02 0.0
8.875000e-01 1.250000e-02 0.0
9.000000e-01 1.250000e-02 0.0
9.125000e-01 1.250000e-02 0.0
9.250000e-01 1.250000e-02 0.0
9.375000e-01 1.250000e-02 0.0
9.500000e-01 1.250000e-02 0.0
9.625000e-01 1.250000e-02 0.0
9.750000e-01 1.250000e-02 0.0
9.875000e-01 1.250000e-02 0.0
1.000000e+00 1.250000e-02 0.0
0.000000e+00 2.500000e-02 0.0
1.250000e-02 2.500000e-02 0.0
2.500000e-02 2.500000e-02 0.0
3.750000e-02 2.500000e-02 0.0
5.000000e-02 2.500000e-02 0.0
6.250000e-02 2.500000e-02 0.0
7.500000e-02 2.500000e-02 0.0
8.750000e-02 2.500000e-02 0.0
1.000000e-01 2.500000e-02 0.0
1.125000e-01 2.500000e-02 0.0
1.250000e-01 2.500000e-02 0.0
1.375000e-01 2.500000e-02 0.0
1.500000e-01 2.500000e-02 0.0
1.625000e-01 2.500000e-02 0.0
1.750000e-01 2.500000e-02 0.0
1.875000e-01 2.500000e-02 0.0
2.000000e-01 2.500000e-02 0.0
2.125000e-01 2.500000e-02 0.0
2.250000e-01 2.500000e-02 0.0
2.375000e-01 2.500000e-02 0.0
2.500000e-01 2.500000e-02 0.0
2.625000e-01 2.500000e-02 0.0
2.750000e-01 2.500000e-02 0.0
2.875000e-01 2.500000e-02 0.0
3.000000e-01 2.500000e-02 0.0
3.125000e-01 2.500000e-02 0.0
3.250000e-01 2.500000e-02 0.0
3.375000e-01 2.500000e-02 0.0
3.500000e-01 2.500000e-02 0.0
3.625000e-01 2.500000e-02 0.0
3.750000e-01 2.500000e-02 0.0
3.875000e-01 2.500000e-02 0.0
4.000000e-01 2.500000e-02 0.0
4.125000e-01 2.500000e-02 0.0
4.250000e-01 2.500000e-02 0.0
4.375000e-01 2.500000e-02 0.0
4.500000e-01 2.500000e-02 0.0
4.625000e-01 2.500000e-02 0.0
4.750000e-01 2.500000e-02 0.0
4.875000e-01 2.500000e-02 0.0
5.000000e-01 2.500000e-02 0.0
5.125000e-01 2.500000e-02 0.0
5.250000e-01 2.500000e-02 0.0
5.375000e-01 2.500000e-02 0.0
5.500000e-01 2.500000e-02 0.0
5.625000e-01 2.500000e-02 0.0
5.750000e-01 2.500000e-02 0.0
5.875000e-01 2.500000e-02 0.0
6.000000e-01 2.500000e-02 0.0
6.125000e-01 2.500000e-02 0.0
6.250000e-01 2.500000e-02 0.0
6.375000e-01 2.500000e-02 0.0
6.500000e-01 2.500000e-02 0.0
6.625000e-01 2.500000e-02 0.0
6.750000e-01 2.500000e-02 0.0
6.875000e-01 2.500000e-02 0.0
7.000000e-01 2.500000e-02 0.0
7.125000e-01 2.500000e-02 0.0
7.250000e-01 2.500000e-02 0.0
7.375000e-01 2.500000e-02 0.0
7.500000e-01 2.500000e-02 0.0
7.625000e-01 2.500000e-02 0.0
7.750000e-01 2.500000e-02 0.0
7.875000e-01 2.500000e-02 0.0
8.000000e-01 2.500000e-02 0.0
8.125000e-01 2.500000e-02 0.0
8.250000e-01 2.500000e-02 0.0
8.375000e-01 2.500000e-02 0.0
8.500000e-01 2.500000e-02 0.0
8.625000e-01 2.500000e-02 0.0
8.750000e-01 2.500000e-02 0.0
8.875000e-01 2.500000e-02 0.0
9.000000e-01 2.500000e-02 0.0
9.125000e-01 2.500000e-02 0.0
9.250000e-01 2.500000e-02 0.0
9.375000e-01 2.500000e-02 0.0
9.500000e-01 2.500000e-02 0.0
9.625000e-01 2.500000e-02 0.0
9.750000e-01 2.500000e-02 0.0
9.875000e-01 2.500000e-02 0.0
1.000000e+00 2.500000e-02 0.0
0.000000e+00 3.750000e-02 0.0
1.250000e-02 3.750000e-02 0.0
2.500000e-02 3.750000e-02 0.0
3.750000e-02 3.750000e-02 0.0
5.000000e-02 3.750000e-02 0.0
6.250000e-02 3.750000e-02 0.0
7.500000e-02 3.750000e-02 0.0
8.750000e-02 3.750000e-02 0.0
1.000000e-01 3.750000e-02 0.0
1.125000e-01 3.750000e-02 0.0
1.250000e-01 3.750000e-02 0.0
1.375000e-01 3.750000e-02 0.0
1.500000e-01 3.750000e-02 0.0
1.625000e-01 3.750000e-02 0.0
1.750000e-01 3.750000e-02 0.0
1.875000e-01 3.750000e-02 0.0
2.000000e-01 3.750000e-02 0.0
2.125000e-01 3.750000e-02 0.0
2.250000e-01 3.750000e-02 0.0
2.375000e-01 3.750000e-02 0.0
2.500000e-01 3.750000e-02 0.0
2.625000e-01 3.750000e-02 0.0
2.750000e-01 3.750000e-02 0.0
2.875000e-01 3.750000e-02 0.0
3.000000e-01 3.750000e-02 0.0
3.125000e-01 3.750000e-02 0.0
3.250000e-01 3.750000e-02 0.0
3.375000e-01 3.750000e-02 0.0
3.500000e-01 3.750000e-02 0.0
3.625000e-01 3.750000e-02 0.0
3.750000e-01 3.750000e-02 0.0
3.875000e-01 3.750000e-02 0.0
4.000000e-01 3.750000e-02 0.0
4.125000e-01 3.750000e-02 0.0
4.250000e-01 3.750000e-02 0.0
4.375000e-01 3.750000e-02 0.0
4.500000e-01 3.750000e-02 0.0
4.625000e-01 3.750000e-02 0.0
4.750000e-01 3.750000e-02 0.0
4.875000e-01 3.750000e-02 0.0
5.000000e-01 3.750000e-02 0.0
5.125000e-01 3.750000e-02 0.0
5.250000e-01 3.750000e-02 0.0
5.375000e-01 3.750000e-02 0.0
5.500000e-01 3.750000e-02 0.0
5.625000e-01 3.750000e-02 0.0
5.750000e-01 3.750000e-02 0.0
5.875000e-01 3.750000e-02 0.0
6.000000e-01 3.750000e-02 0.0
6.125000e-01 3.750000e-02 0.0
6.250000e-01 3.750000e-02 0.0
6.375000e-01 3.750000e-02 0.0
6.500000e-01 3.750000e-02 0.0
6.625000e-01 3.750000e-02 0.0
6.750000e-01 3.750000e-02 0.0
6.875000e-01 3.750000e-02 0.0
7.000000e-01 3.750000e-02 0.0
7.125000e-01 3.750000e-02 0.0
7.250000e-01 3.750000e-02 0.0
7.375000e-01 3.750000e-02 0.0
7.500000e-01 3.750000e-02 0.0
7.625000e-01 3.750000e-02 0.0
7.750000e-01 3.750000e-02 0.0
7.875000e-01 3.750000e-02 0.0
8.000000e-01 3.750000e-02 0.0
8.125000e-01 3.750000e-02 0.0
8.250000e-01 3.750000e-02 0.0
8.375000e-01 3.750000e-02 0.0
8.500000e-01 3.750000e-02 0.0
8.625000e-01 3.750000e-02 0.0
8.750000e-01 3.750000e-02 0.0
8.875000e-01 3.750000e-02 0.0
9.000000e-01 3.750000e-02 0.0
9.125000e-01 3.750000e-02 0.0
9.250000e-01 3.750000e-02 0.0
9.375000e-01 3.750000e-02 0.0
9.500000e-01 3.750000e-02 0.0
9.625000e-01 3.750000e-02 0.0
9.750000e-01 3.750000e-02 0.0
9.875000e-01 3.750000e-02 0.0
1.000000e+00 3.750000e-02 0.0
0.000000e+00 5.000000e-02 0.0
1.250000e-02 5.000000e-02 0.0
2.500000e-02 5.000000e-02 0.0
3.750000e-02 5.000000e-02 0.0
[...]
CELL_DATA 6400
SCALARS Temperature double 1
LOOKUP_TABLE default
5.000000e-01
2.007268e-01
9.652524e-02
5.353793e-02
3.225272e-02
2.034360e-02
1.321082e-02
8.762244e-03
5.908757e-03
4.038418e-03
2.790948e-03
1.946909e-03
1.368962e-03
9.691989e-04
6.902828e-04
4.942208e-04
3.554972e-04
2.567770e-04
1.861648e-04
1.354268e-04
9.881951e-05
7.230949e-05
5.304699e-05
3.900765e-05
2.874641e-05
2.122718e-05
1.570411e-05
1.163834e-05
8.639229e-06
6.422733e-06
4.781726e-06
3.564774e-06
2.660897e-06
1.988572e-06
1.487797e-06
1.114318e-06
8.354358e-07
6.269511e-07
4.709235e-07
3.540333e-07
2.663775e-07
2.005830e-07
1.511537e-07
1.139877e-07
8.601976e-08
6.495732e-08
4.908362e-08
3.711196e-08
2.807704e-08
2.125403e-08
1.609821e-08
1.219988e-08
9.250646e-09
7.018225e-09
5.327510e-09
4.046424e-09
3.075283e-09
2.338817e-09
1.780181e-09
1.356446e-09
1.035097e-09
7.905940e-10
5.989075e-10
4.286668e-10
3.421979e-10
2.680530e-10
2.082004e-10
1.601071e-10
1.203209e-10
9.357651e-11
7.350748e-11
5.768926e-11
4.496912e-11
3.539520e-11
2.830912e-11
2.300473e-11
1.889653e-11
1.567558e-11
1.321029e-11
1.164204e-11
7.992732e-01
5.000000e-01
3.030735e-01
1.859193e-01
1.171876e-01
7.585178e-02
5.017025e-02
3.375478e-02
2.302320e-02
1.588123e-02
1.105886e-02
7.763229e-03
5.487863e-03
3.903080e-03
2.790864e-03
2.005092e-03
1.446685e-03
1.047782e-03
7.614925e-04
5.551630e-04
4.058974e-04
2.975423e-04
2.186385e-04
1.610159e-04
1.188239e-04
8.785526e-05
6.507335e-05
4.827904e-05
3.587465e-05
2.669612e-05
1.989308e-05
1.484274e-05
1.108799e-05
8.292569e-06
6.208632e-06
4.653167e-06
3.490797e-06
2.621215e-06
1.969987e-06
1.481796e-06
1.115479e-06
8.403622e-07
6.335618e-07
4.779862e-07
3.608551e-07
2.726024e-07
2.060605e-07
1.558539e-07
1.179476e-07
8.930994e-08
6.766152e-08
5.128703e-08
3.889471e-08
2.951109e-08
2.240201e-08
1.701348e-08
1.292717e-08
9.827008e-09
7.474088e-09
5.687700e-09
4.330927e-09
3.299105e-09
2.509779e-09
1.897738e-09
1.447827e-09
1.110062e-09
8.517646e-10
6.471040e-10
4.637518e-10
3.699293e-10
2.904135e-10
2.250769e-10
1.708685e-10
1.332517e-10
1.050081e-10
8.268176e-11
6.573639e-11
5.286911e-11
4.328887e-11
3.734962e-11
9.034748e-01
6.969265e-01
5.000000e-01
3.453264e-01
2.354831e-01
1.606632e-01
1.102744e-01
7.626453e-02
5.314448e-02
3.729492e-02
2.633992e-02
1.871019e-02
1.335954e-02
9.583693e-03
6.904112e-03
4.992813e-03
3.623224e-03
2.637703e-03
1.925844e-03
1.409867e-03
1.034679e-03
7.610675e-04
5.609937e-04
4.143289e-04
3.065678e-04
2.272215e-04
1.686810e-04
1.254104e-04
9.337103e-05
6.960914e-05
5.195927e-05
3.883044e-05
2.905135e-05
2.175803e-05
1.631205e-05
1.224085e-05
9.194079e-06
6.911621e-06
5.200070e-06
3.915432e-06
2.950369e-06
2.224770e-06
1.678775e-06
1.267611e-06
9.577550e-07
7.240800e-07
5.477371e-07
4.145736e-07
3.139540e-07
2.378794e-07
1.803292e-07
1.367685e-07
1.037793e-07
7.878314e-08
5.983402e-08
4.546223e-08
3.455709e-08
2.627880e-08
1.999198e-08
1.521569e-08
1.158552e-08
8.824649e-09
6.721789e-09
5.116841e-09
3.898280e-09
2.974849e-09
2.272582e-09
1.733025e-09
1.310895e-09
1.003368e-09
7.724107e-10
5.886675e-10
4.210845e-10
3.376495e-10
2.645769e-10
2.028935e-10
1.590610e-10
1.262337e-10
1.015545e-10
8.646001e-11
9.464621e-01
8.140807e-01
6.546736e-01
5.000000e-01
3.696643e-01
2.684493e-01
1.932892e-01
1.387462e-01
9.958689e-02
7.158582e-02
5.157389e-02
3.725298e-02
2.698183e-02
1.959560e-02
1.426890e-02
1.041647e-02
7.622455e-03
5.590588e-03
4.109155e-03
3.026396e-03
2.233191e-03
1.650837e-03
1.222407e-03
9.066044e-04
6.733974e-04
5.008875e-04
3.730698e-04
2.782211e-04
2.077356e-04
1.552836e-04
1.162008e-04
8.704393e-05
6.526669e-05
4.898334e-05
3.679510e-05
2.766297e-05
2.081414e-05
1.567305e-05
1.181053e-05
8.906211e-06
6.720646e-06
5.074717e-06
3.834283e-06
2.898794e-06
2.192812e-06
1.659690e-06
1.256855e-06
9.522857e-07
7.218812e-07
5.474859e-07
4.154146e-07
3.153448e-07
2.394849e-07
1.819507e-07
1.382950e-07
1.051555e-07
7.998808e-08
6.086717e-08
4.633432e-08
3.528439e-08
2.687948e-08
2.048365e-08
1.561376e-08
1.190334e-08
9.076884e-09
6.925197e-09
5.286536e-09
4.035714e-09
3.078058e-09
2.350149e-09
1.797785e-09
1.373245e-09
1.039435e-09
7.966317e-10
6.078161e-10
4.372656e-10
3.517861e-10
2.776816e-10
2.174785e-10
1.824834e-10
9.677473e-01
8.828124e-01
7.645169e-01
6.303357e-01
5.000000e-01
3.858075e-01
2.922251e-01
2.187277e-01
1.625244e-01
1.202488e-01
8.876691e-02
6.546163e-02
4.826694e-02
3.560198e-02
2.627914e-02
1.941584e-02
1.436044e-02
1.063358e-02
7.883294e-03
5.851366e-03
4.348356e-03
3.235212e-03
2.409786e-03
1.796960e-03
1.341426e-03
1.002416e-03
7.498346e-04
5.614397e-04
4.207700e-04
3.156276e-04
2.369619e-04
1.780496e-04
1.338900e-04
1.007597e-04
7.588295e-05
5.718841e-05
4.312874e-05
3.254687e-05
2.457678e-05
1.856966e-05
1.403901e-05
1.061974e-05
8.037611e-06
6.086503e-06
4.611356e-06
3.495440e-06
2.650821e-06
2.011210e-06
1.526605e-06
1.159263e-06
8.806788e-07
6.693105e-07
5.088703e-07
3.870357e-07
2.944791e-07
2.241368e-07
1.706566e-07
1.299812e-07
9.903355e-08
7.547891e-08
5.754503e-08
4.388584e-08
3.347845e-08
2.554558e-08
1.949718e-08
1.488521e-08
1.136796e-08
8.684017e-09
6.634375e-09
5.069654e-09
3.875989e-09
2.963579e-09
2.263587e-09
1.730191e-09
1.321386e-09
1.001121e-09
7.695267e-10
5.901841e-10
4.296799e-10
3.667653e-10
9.796564e-01
9.241482e-01
8.393368e-01
7.315507e-01
6.141925e-01
5.000000e-01
3.974148e-01
3.102883e-01
2.391368e-01
1.825955e-01
1.385092e-01
1.045852e-01
7.872004e-02
5.912534e-02
4.434673e-02
3.323437e-02
2.489581e-02
1.864689e-02
1.396763e-02
1.046513e-02
7.843738e-03
5.881594e-03
4.412521e-03
3.312200e-03
2.487694e-03
1.869542e-03
1.405840e-03
1.057791e-03
7.963928e-04
5.999507e-04
4.522321e-04
3.410836e-04
2.574003e-04
1.943572e-04
1.468353e-04
1.109922e-04
8.394238e-05
6.351710e-05
4.808559e-05
3.642071e-05
2.759848e-05
2.092280e-05
1.586890e-05
1.204096e-05
9.140226e-06
6.941123e-06
5.273203e-06
4.007619e-06
3.046919e-06
2.317361e-06
1.763115e-06
1.341891e-06
1.021644e-06
7.780799e-07
5.927713e-07
4.517365e-07
3.443618e-07
2.625870e-07
2.002891e-07
1.528146e-07
1.166253e-07
8.903054e-08
6.798277e-08
5.192385e-08
3.966780e-08
3.031194e-08
2.316848e-08
1.771276e-08
1.354463e-08
1.035944e-08
7.925289e-09
6.064359e-09
4.640547e-09
3.551166e-09
2.717147e-09
2.077200e-09
1.590292e-09
1.218032e-09
9.276463e-10
7.170726e-10
9.867892e-01
9.498297e-01
8.897256e-01
8.067108e-01
7.077749e-01
6.025852e-01
5.000000e-01
4.062261e-01
3.245448e-01
2.559037e-01
1.997382e-01
1.546840e-01
1.190749e-01
9.124260e-02
6.967048e-02
5.305646e-02
4.032262e-02
3.059852e-02
2.319345e-02
1.756625e-02
1.329682e-02
1.006136e-02
7.611535e-03
5.757683e-03
4.355375e-03
3.294879e-03
2.492964e-03
1.886585e-03
1.428029e-03
1.081214e-03
8.188595e-04
6.203526e-04
4.701157e-04
3.563789e-04
2.702485e-04
2.050030e-04
1.555621e-04
1.180848e-04
8.966665e-05
6.811039e-05
5.175356e-05
3.933778e-05
2.991029e-05
2.274943e-05
1.730843e-05
1.317284e-05
1.002845e-05
7.636922e-06
5.817425e-06
4.432703e-06
3.378544e-06
2.575794e-06
1.964314e-06
1.498396e-06
1.143288e-06
8.725624e-07
6.661106e-07
5.086315e-07
3.884770e-07
2.967772e-07
2.267760e-07
1.733258e-07
1.325033e-07
1.013175e-07
7.748800e-08
5.927537e-08
4.535277e-08
3.470742e-08
2.656606e-08
2.033832e-08
1.557354e-08
1.192730e-08
9.136206e-09
6.999047e-09
5.362166e-09
4.108120e-09
3.148190e-09
2.414070e-09
1.853910e-09
1.436877e-09
9.912378e-01
9.662452e-01
9.237355e-01
8.612538e-01
7.812723e-01
6.897117e-01
5.937739e-01
5.000000e-01
4.131833e-01
3.361315e-01
2.699542e-01
2.145489e-01
1.690761e-01
1.323316e-01
1.030011e-01
7.981379e-02
6.162311e-02
4.743934e-02
3.643392e-02
2.792816e-02
2.137511e-02
1.633937e-02
1.247761e-02
9.521049e-03
7.260545e-03
5.534079e-03
4.216613e-03
3.211934e-03
2.446182e-03
1.862773e-03
1.418418e-03
1.080047e-03
8.224171e-04
6.262780e-04
4.769576e-04
3.632787e-04
2.767299e-04
2.108313e-04
1.606507e-04
1.224344e-04
9.332574e-05
7.115075e-05
5.425504e-05
4.137948e-05
3.156572e-05
2.408426e-05
1.837969e-05
1.402913e-05
1.071054e-05
8.178618e-06
6.246487e-06
4.771764e-06
3.645932e-06
2.786275e-06
2.129731e-06
1.628207e-06
1.245025e-06
9.522022e-07
7.283866e-07
5.572826e-07
4.264508e-07
3.263933e-07
2.498570e-07
1.913016e-07
1.464944e-07
1.122011e-07
8.595016e-08
6.585196e-08
5.046176e-08
3.867466e-08
2.964560e-08
2.272809e-08
1.742736e-08
1.336469e-08
1.025032e-08
7.862642e-09
6.032496e-09
4.631766e-09
3.567483e-09
2.789933e-09
9.940912e-01
9.769768e-01
9.468555e-01
9.004131e-01
8.374756e-01
7.608632e-01
6.754552e-01
5.868167e-01
5.000000e-01
4.188431e-01
3.457691e-01
2.819257e-01
2.274817e-01
1.819511e-01
1.444708e-01
1.140102e-01
8.951190e-02
6.997656e-02
5.450798e-02
4.233055e-02
3.279011e-02
2.534555e-02
1.955586e-02
1.506578e-02
1.159177e-02
8.909207e-03
6.841233e-03
5.249271e-03
4.025198e-03
3.084930e-03
2.363268e-03
1.809774e-03
1.385507e-03
1.060453e-03
8.115110e-04
6.209215e-04
4.750448e-04
3.634144e-04
2.780046e-04
2.126643e-04
1.626819e-04
1.244497e-04
9.520633e-05
7.283848e-05
5.572940e-05
4.264232e-05
3.263127e-05
2.497281e-05
1.911367e-05
1.463074e-05
1.120046e-05
8.575413e-06
6.566366e-06
5.028602e-06
3.851435e-06
2.950203e-06
2.260142e-06
1.731709e-06
1.326995e-06
1.016997e-06
7.795179e-07
5.975697e-07
4.581495e-07
3.513030e-07
2.694091e-07
2.066323e-07
1.585037e-07
1.216005e-07
9.330101e-08
7.159650e-08
5.494795e-08
4.217597e-08
3.237665e-08
2.485707e-08
1.908614e-08
1.465691e-08
1.125826e-08
8.654917e-09
6.679247e-09
5.253344e-09
9.959616e-01
9.841188e-01
9.627051e-01
9.284142e-01
8.797512e-01
8.174045e-01
7.440963e-01
6.638685e-01
5.811569e-01
5.000000e-01
4.235562e-01
3.539372e-01
2.922699e-01
2.388835e-01
1.935332e-01
1.556092e-01
1.243069e-01
9.875011e-02
7.807379e-02
6.147389e-02
4.823285e-02
3.772890e-02
2.943508e-02
2.291242e-02
1.780016e-02
1.380504e-02
1.069081e-02
8.268499e-03
6.387917e-03
4.930282e-03
3.802061e-03
2.929877e-03
2.256340e-03
1.736686e-03
1.336077e-03
1.027457e-03
7.898462e-04
6.070018e-04
4.663644e-04
3.582332e-04
2.751227e-04
2.112615e-04
1.622034e-04
1.245247e-04
9.559086e-05
7.337548e-05
5.632053e-05
4.322851e-05
3.317932e-05
2.546617e-05
1.954625e-05
1.500275e-05
1.151569e-05
8.839415e-06
6.785392e-06
5.208908e-06
3.998906e-06
3.070155e-06
2.357252e-06
1.810006e-06
1.389900e-06
1.067378e-06
8.197564e-07
6.296288e-07
4.836356e-07
3.715237e-07
2.854238e-07
2.192954e-07
1.685020e-07
1.294844e-07
9.951004e-08
7.648106e-08
5.878663e-08
4.518987e-08
3.474103e-08
2.671117e-08
2.054214e-08
1.581188e-08
1.222226e-08
9.646771e-09
9.972091e-01
9.889411e-01
9.736601e-01
9.484261e-01
9.112331e-01
8.614908e-01
8.002618e-01
7.300458e-01
6.542309e-01
5.764438e-01
5.000000e-01
4.275555e-01
3.609672e-01
3.013154e-01
2.490221e-01
2.040090e-01
1.658560e-01
1.339380e-01
1.075314e-01
8.589071e-02
6.829916e-02
5.409841e-02
4.270349e-02
3.360731e-02
2.637873e-02
2.065670e-02
1.614264e-02
1.259213e-02
9.806772e-03
7.626675e-03
5.923751e-03
4.595922e-03
3.562190e-03
2.758534e-03
2.134513e-03
1.650503e-03
1.275453e-03
9.850836e-04
7.604465e-04
5.867796e-04
4.525988e-04
3.489818e-04
2.690049e-04
2.073008e-04
1.597126e-04
1.230231e-04
9.474473e-05
7.295487e-05
5.616858e-05
4.323951e-05
3.328310e-05
2.561705e-05
1.971527e-05
1.517227e-05
1.167555e-05
8.984375e-06
6.913310e-06
5.319560e-06
4.093175e-06
3.149510e-06
2.423408e-06
1.864720e-06
1.434850e-06
1.104097e-06
8.496072e-07
6.537937e-07
5.031257e-07
3.871926e-07
2.979845e-07
2.293389e-07
1.765144e-07
1.358633e-07
1.045790e-07
8.050236e-08
6.197222e-08
4.771131e-08
3.674005e-08
2.831718e-08
2.192142e-08
1.734419e-08
9.980531e-01
9.922368e-01
9.812898e-01
9.627470e-01
9.345384e-01
8.954148e-01
8.453160e-01
7.854511e-01
7.180743e-01
6.460628e-01
5.724445e-01
5.000000e-01
4.310015e-01
3.670963e-01
3.093068e-01
2.581065e-01
2.135332e-01
1.753096e-01
1.429536e-01
1.158693e-01
9.341631e-02
7.495845e-02
5.989538e-02
4.768093e-02
3.783152e-02
2.992805e-02
2.361334e-02
1.858717e-02
1.460004e-02
1.144657e-02
8.959045e-03
7.001456e-03
5.464139e-03
4.259135e-03
3.316195e-03
2.579438e-03
2.004558e-03
1.556534e-03
1.207756e-03
9.365063e-04
7.257394e-04
5.621006e-04
4.351441e-04
3.367117e-04
2.604399e-04
2.013715e-04
1.556483e-04
1.202709e-04
9.290927e-05
7.175484e-05
5.540479e-05
4.277174e-05
3.301328e-05
2.547713e-05
1.965847e-05
1.516676e-05
1.170000e-05
9.024733e-06
6.960553e-06
5.368074e-06
4.139644e-06
3.192136e-06
2.461371e-06
1.897814e-06
1.463235e-06
1.128136e-06
8.697575e-07
6.705434e-07
5.169515e-07
3.985373e-07
3.072461e-07
2.368666e-07
1.826094e-07
1.407817e-07
1.085368e-07
8.368118e-08
6.452978e-08
4.980595e-08
3.861412e-08
3.061082e-08
9.986310e-01
9.945121e-01
9.866405e-01
9.730182e-01
9.517331e-01
9.212800e-01
8.809251e-01
8.309239e-01
7.725183e-01
7.077301e-01
6.390328e-01
5.689985e-01
5.000000e-01
4.340092e-01
3.724985e-01
3.164297e-01
2.663020e-01
2.222342e-01
1.840572e-01
1.514032e-01
1.237833e-01
1.006484e-01
8.143578e-02
6.560037e-02
5.263510e-02
4.208206e-02
3.353712e-02
2.665017e-02
2.112238e-02
1.670181e-02
1.317833e-02
1.037817e-02
8.158735e-03
6.403785e-03
5.019095e-03
3.928669e-03
3.071479e-03
2.398709e-03
1.871445e-03
1.458758e-03
1.136135e-03
8.841947e-04
6.876461e-04
5.344492e-04
4.151407e-04
3.222943e-04
2.500907e-04
1.939757e-04
1.503898e-04
1.165534e-04
9.029850e-05
6.993549e-05
5.414863e-05
4.191412e-05
3.243590e-05
2.509534e-05
1.941198e-05
1.501287e-05
1.160865e-05
8.974908e-06
6.937688e-06
5.362180e-06
4.143954e-06
3.202139e-06
2.474124e-06
1.911449e-06
1.476618e-06
1.140619e-06
8.810161e-07
6.804571e-07
5.255260e-07
4.058511e-07
3.134159e-07
2.420248e-07
1.868907e-07
1.443173e-07
1.114591e-07
8.615727e-08
6.689972e-08
5.312637e-08
9.990308e-01
9.960969e-01
9.904163e-01
9.804044e-01
9.643980e-01
9.408747e-01
9.087574e-01
8.676684e-01
8.180489e-01
7.611165e-01
6.986846e-01
6.329037e-01
5.659908e-01
5.000000e-01
4.366628e-01
3.773048e-01
3.228279e-01
2.737408e-01
2.302188e-01
1.921752e-01
1.593341e-01
1.312958e-01
1.075907e-01
8.772202e-02
7.119655e-02
5.754556e-02
4.633774e-02
3.718594e-02
2.974947e-02
2.373329e-02
1.888535e-02
1.499266e-02
1.187704e-02
9.390601e-03
7.411514e-03
5.840016e-03
4.594876e-03
3.610272e-03
2.833094e-03
2.220654e-03
1.738762e-03
1.360112e-03
1.062964e-03
8.300444e-04
6.476663e-04
5.050027e-04
3.935064e-04
3.064411e-04
2.385057e-04
1.855347e-04
1.442589e-04
1.121158e-04
8.709860e-05
6.763775e-05
5.250644e-05
4.074670e-05
3.161107e-05
2.451671e-05
1.900949e-05
1.473574e-05
1.142021e-05
8.848799e-06
6.855025e-06
5.309509e-06
4.111743e-06
3.183678e-06
2.464727e-06
1.907875e-06
1.476645e-06
1.142753e-06
8.842630e-07
6.841756e-07
5.293147e-07
4.094720e-07
3.167406e-07
2.450007e-07
1.895309e-07
1.467436e-07
1.141282e-07
9.078454e-08
9.993097e-01
9.972091e-01
9.930959e-01
9.857311e-01
9.737209e-01
9.556533e-01
9.303295e-01
8.969989e-01
8.555292e-01
8.064668e-01
7.509779e-01
6.906932e-01
6.275015e-01
5.633372e-01
5.000000e-01
4.390259e-01
3.816157e-01
3.286144e-01
2.805299e-01
2.375763e-01
1.997304e-01
1.667902e-01
1.384305e-01
1.142507e-01
9.381306e-02
7.667227e-02
6.239650e-02
5.058121e-02
4.085741e-02
3.289554e-02
2.640629e-02
2.113929e-02
1.688046e-02
1.344865e-02
1.069188e-02
8.483686e-03
6.719498e-03
5.313391e-03
4.195126e-03
3.307555e-03
2.604379e-03
2.048229e-03
1.609048e-03
1.262731e-03
9.900027e-04
7.754890e-04
6.069542e-04
4.746817e-04
3.709698e-04
2.897246e-04
2.261325e-04
1.763962e-04
1.375249e-04
1.071655e-04
8.346881e-05
6.498346e-05
5.057118e-05
3.934021e-05
3.059245e-05
2.378187e-05
1.848166e-05
1.435847e-05
1.115207e-05
8.659454e-06
6.722338e-06
5.217370e-06
4.048467e-06
3.140819e-06
2.436206e-06
1.889336e-06
1.464984e-06
1.135769e-06
8.804087e-07
6.823713e-07
5.288169e-07
4.097831e-07
3.175654e-07
2.462992e-07
1.918842e-07
1.528968e-07
9.995058e-01
9.979949e-01
9.950072e-01
9.895835e-01
9.805842e-01
9.667656e-01
9.469435e-01
9.201862e-01
8.859898e-01
8.443908e-01
7.959910e-01
7.418935e-01
6.835703e-01
6.226952e-01
5.609741e-01
5.000000e-01
4.411472e-01
3.855096e-01
3.338792e-01
2.867564e-01
2.443819e-01
2.067810e-01
1.738116e-01
1.452111e-01
1.206384e-01
9.970837e-02
8.201983e-02
6.717590e-02
5.479840e-02
4.453708e-02
3.607467e-02
2.912906e-02
2.345311e-02
1.883308e-02
1.508614e-02
1.205734e-02
9.616476e-03
7.654889e-03
6.082504e-03
4.825067e-03
3.821674e-03
3.022604e-03
2.387425e-03
1.883388e-03
1.484049e-03
1.168125e-03
9.185321e-04
7.215935e-04
5.663840e-04
4.441954e-04
3.481008e-04
2.725995e-04
2.133309e-04
1.668437e-04
1.304096e-04
1.018754e-04
7.954337e-05
6.207643e-05
4.842287e-05
3.775611e-05
2.942714e-05
2.292679e-05
1.785594e-05
1.390193e-05
1.082006e-05
8.418865e-06
6.548694e-06
5.092605e-06
3.959278e-06
3.077436e-06
2.391469e-06
1.858013e-06
1.443265e-06
1.120888e-06
8.703710e-07
6.757553e-07
5.246684e-07
4.076748e-07
3.181821e-07
2.539799e-07
9.996445e-01
9.985533e-01
9.963768e-01
9.923775e-01
9.856396e-01
9.751042e-01
9.596774e-01
9.383769e-01
9.104881e-01
8.756931e-01
8.341440e-01
7.864668e-01
7.336980e-01
6.771721e-01
6.183843e-01
5.588528e-01
5.000000e-01
4.430649e-01
3.890490e-01
3.386953e-01
2.924926e-01
2.506993e-01
2.133779e-01
1.804349e-01
1.516606e-01
1.267650e-01
1.054100e-01
8.723461e-02
7.187481e-02
5.897799e-02
4.821275e-02
3.927490e-02
3.189060e-02
2.581714e-02
2.084236e-02
1.678288e-02
1.348178e-02
1.080596e-02
8.643356e-03
6.900288e-03
5.498892e-03
4.374811e-03
3.475108e-03
2.756433e-03
2.183424e-03
1.727343e-03
1.364912e-03
1.077330e-03
8.494579e-04
6.691319e-04
5.266047e-04
4.140808e-04
3.253385e-04
2.554210e-04
2.003865e-04
1.571046e-04
1.230934e-04
9.638789e-05
7.543387e-05
5.900386e-05
4.612937e-05
3.604706e-05
2.815585e-05
2.198288e-05
1.715646e-05
1.338466e-05
1.043835e-05
8.137862e-06
6.342346e-06
4.941493e-06
3.848947e-06
2.997144e-06
2.333252e-06
1.815976e-06
1.413062e-06
1.099342e-06
8.552515e-07
6.658393e-07
5.206691e-07
4.163722e-07
9.997432e-01
9.989522e-01
9.973623e-01
9.944094e-01
9.893664e-01
9.813531e-01
9.694015e-01
9.525607e-01
9.300234e-01
9.012499e-01
8.660620e-01
8.246904e-01
7.777658e-01
7.262592e-01
6.713856e-01
6.144904e-01
5.569351e-01
5.000000e-01
4.448092e-01
3.922840e-01
3.431221e-01
2.977984e-01
2.565824e-01
2.195654e-01
1.866933e-01
1.578008e-01
1.326425e-01
1.109218e-01
9.231433e-02
7.648675e-02
6.311096e-02
5.187425e-02
4.248590e-02
3.468108e-02
2.822254e-02
2.290066e-02
1.853251e-02
1.496009e-02
1.204817e-02
9.681951e-03
7.764648e-03
6.215208e-03
4.966130e-03
3.961489e-03
3.155169e-03
2.509303e-03
1.992916e-03
1.580765e-03
1.252338e-03
9.910217e-04
7.833967e-04
6.186492e-04
4.880864e-04
3.847354e-04
3.030142e-04
2.384623e-04
1.875217e-04
1.473590e-04
1.157209e-04
9.081813e-05
7.123182e-05
5.583801e-05
4.374751e-05
3.425755e-05
2.681331e-05
2.097715e-05
1.640418e-05
1.282284e-05
1.001947e-05
7.826075e-06
6.110693e-06
4.769706e-06
3.721813e-06
2.903265e-06
2.264107e-06
1.765242e-06
1.376192e-06
1.073614e-06
8.412319e-07
6.740132e-07
9.998138e-01
9.992385e-01
9.980742e-01
9.958908e-01
9.921167e-01
9.860324e-01
9.768066e-01
9.635661e-01
9.454920e-01
9.219262e-01
8.924686e-01
8.570464e-01
8.159428e-01
7.697812e-01
7.194701e-01
6.661208e-01
6.109510e-01
5.551908e-01
5.000000e-01
4.464045e-01
3.952553e-01
3.472086e-01
3.027242e-01
2.620777e-01
2.253824e-01
1.926167e-01
1.636524e-01
1.382830e-01
1.162488e-01
9.725847e-02
8.100721e-02
6.719025e-02
5.551312e-02
4.569875e-02
3.749185e-02
3.066130e-02
2.500091e-02
2.032902e-02
1.648733e-02
1.333920e-02
1.076766e-02
8.673374e-03
6.972477e-03
5.594640e-03
4.481186e-03
3.583405e-03
2.861041e-03
2.280958e-03
1.815988e-03
1.443929e-03
1.146696e-03
9.096003e-04
7.207434e-04
5.705123e-04
4.511574e-04
3.564454e-04
2.813723e-04
2.219286e-04
1.749071e-04
1.377469e-04
1.084059e-04
8.525830e-05
6.701119e-05
5.263794e-05
4.132419e-05
3.242470e-05
2.542876e-05
1.993255e-05
1.561706e-05
1.223050e-05
9.574289e-06
7.491954e-06
5.860278e-06
4.582305e-06
3.581809e-06
2.798939e-06
2.186900e-06
1.709771e-06
1.342533e-06
1.077825e-06
9.998646e-01
9.994448e-01
9.985901e-01
9.969736e-01
9.941486e-01
9.895349e-01
9.824338e-01
9.720718e-01
9.576695e-01
9.385261e-01
9.141093e-01
8.841307e-01
8.485968e-01