# vtk DataFile Version 3.0
16.TVD_MUSCL_Pe = infintie,Grid 41x41,1000000.vtk
ASCII
DATASET STRUCTURED_GRID
DIMENSIONS 41 41 1
POINTS 1681 double
0.000000e+00 0.000000e+00 0.0
2.500000e-02 0.000000e+00 0.0
5.000000e-02 0.000000e+00 0.0
7.500000e-02 0.000000e+00 0.0
1.000000e-01 0.000000e+00 0.0
1.250000e-01 0.000000e+00 0.0
1.500000e-01 0.000000e+00 0.0
1.750000e-01 0.000000e+00 0.0
2.000000e-01 0.000000e+00 0.0
2.250000e-01 0.000000e+00 0.0
2.500000e-01 0.000000e+00 0.0
2.750000e-01 0.000000e+00 0.0
3.000000e-01 0.000000e+00 0.0
3.250000e-01 0.000000e+00 0.0
3.500000e-01 0.000000e+00 0.0
3.750000e-01 0.000000e+00 0.0
4.000000e-01 0.000000e+00 0.0
4.250000e-01 0.000000e+00 0.0
4.500000e-01 0.000000e+00 0.0
4.750000e-01 0.000000e+00 0.0
5.000000e-01 0.000000e+00 0.0
5.250000e-01 0.000000e+00 0.0
5.500000e-01 0.000000e+00 0.0
5.750000e-01 0.000000e+00 0.0
6.000000e-01 0.000000e+00 0.0
6.250000e-01 0.000000e+00 0.0
6.500000e-01 0.000000e+00 0.0
6.750000e-01 0.000000e+00 0.0
7.000000e-01 0.000000e+00 0.0
7.250000e-01 0.000000e+00 0.0
7.500000e-01 0.000000e+00 0.0
7.750000e-01 0.000000e+00 0.0
8.000000e-01 0.000000e+00 0.0
8.250000e-01 0.000000e+00 0.0
8.500000e-01 0.000000e+00 0.0
8.750000e-01 0.000000e+00 0.0
9.000000e-01 0.000000e+00 0.0
9.250000e-01 0.000000e+00 0.0
9.500000e-01 0.000000e+00 0.0
9.750000e-01 0.000000e+00 0.0
1.000000e+00 0.000000e+00 0.0
0.000000e+00 2.500000e-02 0.0
2.500000e-02 2.500000e-02 0.0
5.000000e-02 2.500000e-02 0.0
7.500000e-02 2.500000e-02 0.0
1.000000e-01 2.500000e-02 0.0
1.250000e-01 2.500000e-02 0.0
1.500000e-01 2.500000e-02 0.0
1.750000e-01 2.500000e-02 0.0
2.000000e-01 2.500000e-02 0.0
2.250000e-01 2.500000e-02 0.0
2.500000e-01 2.500000e-02 0.0
2.750000e-01 2.500000e-02 0.0
3.000000e-01 2.500000e-02 0.0
3.250000e-01 2.500000e-02 0.0
3.500000e-01 2.500000e-02 0.0
3.750000e-01 2.500000e-02 0.0
4.000000e-01 2.500000e-02 0.0
4.250000e-01 2.500000e-02 0.0
4.500000e-01 2.500000e-02 0.0
4.750000e-01 2.500000e-02 0.0
5.000000e-01 2.500000e-02 0.0
5.250000e-01 2.500000e-02 0.0
5.500000e-01 2.500000e-02 0.0
5.750000e-01 2.500000e-02 0.0
6.000000e-01 2.500000e-02 0.0
6.250000e-01 2.500000e-02 0.0
6.500000e-01 2.500000e-02 0.0
6.750000e-01 2.500000e-02 0.0
7.000000e-01 2.500000e-02 0.0
7.250000e-01 2.500000e-02 0.0
7.500000e-01 2.500000e-02 0.0
7.750000e-01 2.500000e-02 0.0
8.000000e-01 2.500000e-02 0.0
8.250000e-01 2.500000e-02 0.0
8.500000e-01 2.500000e-02 0.0
8.750000e-01 2.500000e-02 0.0
9.000000e-01 2.500000e-02 0.0
9.250000e-01 2.500000e-02 0.0
9.500000e-01 2.500000e-02 0.0
9.750000e-01 2.500000e-02 0.0
1.000000e+00 2.500000e-02 0.0
0.000000e+00 5.000000e-02 0.0
2.500000e-02 5.000000e-02 0.0
5.000000e-02 5.000000e-02 0.0
7.500000e-02 5.000000e-02 0.0
1.000000e-01 5.000000e-02 0.0
1.250000e-01 5.000000e-02 0.0
1.500000e-01 5.000000e-02 0.0
1.750000e-01 5.000000e-02 0.0
2.000000e-01 5.000000e-02 0.0
2.250000e-01 5.000000e-02 0.0
2.500000e-01 5.000000e-02 0.0
2.750000e-01 5.000000e-02 0.0
3.000000e-01 5.000000e-02 0.0
3.250000e-01 5.000000e-02 0.0
3.500000e-01 5.000000e-02 0.0
3.750000e-01 5.000000e-02 0.0
4.000000e-01 5.000000e-02 0.0
4.250000e-01 5.000000e-02 0.0
4.500000e-01 5.000000e-02 0.0
4.750000e-01 5.000000e-02 0.0
5.000000e-01 5.000000e-02 0.0
5.250000e-01 5.000000e-02 0.0
5.500000e-01 5.000000e-02 0.0
5.750000e-01 5.000000e-02 0.0
6.000000e-01 5.000000e-02 0.0
6.250000e-01 5.000000e-02 0.0
6.500000e-01 5.000000e-02 0.0
6.750000e-01 5.000000e-02 0.0
7.000000e-01 5.000000e-02 0.0
7.250000e-01 5.000000e-02 0.0
7.500000e-01 5.000000e-02 0.0
7.750000e-01 5.000000e-02 0.0
8.000000e-01 5.000000e-02 0.0
8.250000e-01 5.000000e-02 0.0
8.500000e-01 5.000000e-02 0.0
8.750000e-01 5.000000e-02 0.0
9.000000e-01 5.000000e-02 0.0
9.250000e-01 5.000000e-02 0.0
9.500000e-01 5.000000e-02 0.0
9.750000e-01 5.000000e-02 0.0
1.000000e+00 5.000000e-02 0.0
0.000000e+00 7.500000e-02 0.0
2.500000e-02 7.500000e-02 0.0
5.000000e-02 7.500000e-02 0.0
7.500000e-02 7.500000e-02 0.0
1.000000e-01 7.500000e-02 0.0
1.250000e-01 7.500000e-02 0.0
1.500000e-01 7.500000e-02 0.0
1.750000e-01 7.500000e-02 0.0
2.000000e-01 7.500000e-02 0.0
2.250000e-01 7.500000e-02 0.0
2.500000e-01 7.500000e-02 0.0
2.750000e-01 7.500000e-02 0.0
3.000000e-01 7.500000e-02 0.0
3.250000e-01 7.500000e-02 0.0
3.500000e-01 7.500000e-02 0.0
3.750000e-01 7.500000e-02 0.0
4.000000e-01 7.500000e-02 0.0
4.250000e-01 7.500000e-02 0.0
4.500000e-01 7.500000e-02 0.0
4.750000e-01 7.500000e-02 0.0
5.000000e-01 7.500000e-02 0.0
5.250000e-01 7.500000e-02 0.0
5.500000e-01 7.500000e-02 0.0
5.750000e-01 7.500000e-02 0.0
6.000000e-01 7.500000e-02 0.0
6.250000e-01 7.500000e-02 0.0
6.500000e-01 7.500000e-02 0.0
6.750000e-01 7.500000e-02 0.0
7.000000e-01 7.500000e-02 0.0
7.250000e-01 7.500000e-02 0.0
7.500000e-01 7.500000e-02 0.0
7.750000e-01 7.500000e-02 0.0
8.000000e-01 7.500000e-02 0.0
8.250000e-01 7.500000e-02 0.0
8.500000e-01 7.500000e-02 0.0
8.750000e-01 7.500000e-02 0.0
9.000000e-01 7.500000e-02 0.0
9.250000e-01 7.500000e-02 0.0
9.500000e-01 7.500000e-02 0.0
9.750000e-01 7.500000e-02 0.0
1.000000e+00 7.500000e-02 0.0
0.000000e+00 1.000000e-01 0.0
2.500000e-02 1.000000e-01 0.0
5.000000e-02 1.000000e-01 0.0
7.500000e-02 1.000000e-01 0.0
1.000000e-01 1.000000e-01 0.0
1.250000e-01 1.000000e-01 0.0
1.500000e-01 1.000000e-01 0.0
1.750000e-01 1.000000e-01 0.0
2.000000e-01 1.000000e-01 0.0
2.250000e-01 1.000000e-01 0.0
2.500000e-01 1.000000e-01 0.0
2.750000e-01 1.000000e-01 0.0
3.000000e-01 1.000000e-01 0.0
3.250000e-01 1.000000e-01 0.0
3.500000e-01 1.000000e-01 0.0
3.750000e-01 1.000000e-01 0.0
4.000000e-01 1.000000e-01 0.0
4.250000e-01 1.000000e-01 0.0
4.500000e-01 1.000000e-01 0.0
4.750000e-01 1.000000e-01 0.0
5.000000e-01 1.000000e-01 0.0
5.250000e-01 1.000000e-01 0.0
5.500000e-01 1.000000e-01 0.0
5.750000e-01 1.000000e-01 0.0
6.000000e-01 1.000000e-01 0.0
6.250000e-01 1.000000e-01 0.0
6.500000e-01 1.000000e-01 0.0
6.750000e-01 1.000000e-01 0.0
7.000000e-01 1.000000e-01 0.0
7.250000e-01 1.000000e-01 0.0
7.500000e-01 1.000000e-01 0.0
7.750000e-01 1.000000e-01 0.0
8.000000e-01 1.000000e-01 0.0
8.250000e-01 1.000000e-01 0.0
8.500000e-01 1.000000e-01 0.0
8.750000e-01 1.000000e-01 0.0
9.000000e-01 1.000000e-01 0.0
9.250000e-01 1.000000e-01 0.0
9.500000e-01 1.000000e-01 0.0
9.750000e-01 1.000000e-01 0.0
1.000000e+00 1.000000e-01 0.0
0.000000e+00 1.250000e-01 0.0
2.500000e-02 1.250000e-01 0.0
5.000000e-02 1.250000e-01 0.0
7.500000e-02 1.250000e-01 0.0
1.000000e-01 1.250000e-01 0.0
1.250000e-01 1.250000e-01 0.0
1.500000e-01 1.250000e-01 0.0
1.750000e-01 1.250000e-01 0.0
2.000000e-01 1.250000e-01 0.0
2.250000e-01 1.250000e-01 0.0
2.500000e-01 1.250000e-01 0.0
2.750000e-01 1.250000e-01 0.0
3.000000e-01 1.250000e-01 0.0
3.250000e-01 1.250000e-01 0.0
3.500000e-01 1.250000e-01 0.0
3.750000e-01 1.250000e-01 0.0
4.000000e-01 1.250000e-01 0.0
4.250000e-01 1.250000e-01 0.0
4.500000e-01 1.250000e-01 0.0
4.750000e-01 1.250000e-01 0.0
5.000000e-01 1.250000e-01 0.0
5.250000e-01 1.250000e-01 0.0
5.500000e-01 1.250000e-01 0.0
5.750000e-01 1.250000e-01 0.0
6.000000e-01 1.250000e-01 0.0
6.250000e-01 1.250000e-01 0.0
6.500000e-01 1.250000e-01 0.0
6.750000e-01 1.250000e-01 0.0
7.000000e-01 1.250000e-01 0.0
7.250000e-01 1.250000e-01 0.0
7.500000e-01 1.250000e-01 0.0
7.750000e-01 1.250000e-01 0.0
8.000000e-01 1.250000e-01 0.0
8.250000e-01 1.250000e-01 0.0
8.500000e-01 1.250000e-01 0.0
8.750000e-01 1.250000e-01 0.0
9.000000e-01 1.250000e-01 0.0
9.250000e-01 1.250000e-01 0.0
9.500000e-01 1.250000e-01 0.0
9.750000e-01 1.250000e-01 0.0
1.000000e+00 1.250000e-01 0.0
0.000000e+00 1.500000e-01 0.0
2.500000e-02 1.500000e-01 0.0
5.000000e-02 1.500000e-01 0.0
7.500000e-02 1.500000e-01 0.0
1.000000e-01 1.500000e-01 0.0
1.250000e-01 1.500000e-01 0.0
1.500000e-01 1.500000e-01 0.0
1.750000e-01 1.500000e-01 0.0
2.000000e-01 1.500000e-01 0.0
2.250000e-01 1.500000e-01 0.0
2.500000e-01 1.500000e-01 0.0
2.750000e-01 1.500000e-01 0.0
3.000000e-01 1.500000e-01 0.0
3.250000e-01 1.500000e-01 0.0
3.500000e-01 1.500000e-01 0.0
3.750000e-01 1.500000e-01 0.0
4.000000e-01 1.500000e-01 0.0
4.250000e-01 1.500000e-01 0.0
4.500000e-01 1.500000e-01 0.0
4.750000e-01 1.500000e-01 0.0
5.000000e-01 1.500000e-01 0.0
5.250000e-01 1.500000e-01 0.0
5.500000e-01 1.500000e-01 0.0
5.750000e-01 1.500000e-01 0.0
6.000000e-01 1.500000e-01 0.0
6.250000e-01 1.500000e-01 0.0
6.500000e-01 1.500000e-01 0.0
6.750000e-01 1.500000e-01 0.0
7.000000e-01 1.500000e-01 0.0
7.250000e-01 1.500000e-01 0.0
7.500000e-01 1.500000e-01 0.0
7.750000e-01 1.500000e-01 0.0
8.000000e-01 1.500000e-01 0.0
8.250000e-01 1.500000e-01 0.0
8.500000e-01 1.500000e-01 0.0
8.750000e-01 1.500000e-01 0.0
9.000000e-01 1.500000e-01 0.0
9.250000e-01 1.500000e-01 0.0
9.500000e-01 1.500000e-01 0.0
9.750000e-01 1.500000e-01 0.0
1.000000e+00 1.500000e-01 0.0
0.000000e+00 1.750000e-01 0.0
2.500000e-02 1.750000e-01 0.0
5.000000e-02 1.750000e-01 0.0
7.500000e-02 1.750000e-01 0.0
1.000000e-01 1.750000e-01 0.0
1.250000e-01 1.750000e-01 0.0
1.500000e-01 1.750000e-01 0.0
1.750000e-01 1.750000e-01 0.0
2.000000e-01 1.750000e-01 0.0
2.250000e-01 1.750000e-01 0.0
2.500000e-01 1.750000e-01 0.0
2.750000e-01 1.750000e-01 0.0
3.000000e-01 1.750000e-01 0.0
3.250000e-01 1.750000e-01 0.0
3.500000e-01 1.750000e-01 0.0
3.750000e-01 1.750000e-01 0.0
4.000000e-01 1.750000e-01 0.0
4.250000e-01 1.750000e-01 0.0
4.500000e-01 1.750000e-01 0.0
4.750000e-01 1.750000e-01 0.0
5.000000e-01 1.750000e-01 0.0
5.250000e-01 1.750000e-01 0.0
5.500000e-01 1.750000e-01 0.0
5.750000e-01 1.750000e-01 0.0
6.000000e-01 1.750000e-01 0.0
6.250000e-01 1.750000e-01 0.0
6.500000e-01 1.750000e-01 0.0
6.750000e-01 1.750000e-01 0.0
7.000000e-01 1.750000e-01 0.0
7.250000e-01 1.750000e-01 0.0
7.500000e-01 1.750000e-01 0.0
7.750000e-01 1.750000e-01 0.0
8.000000e-01 1.750000e-01 0.0
8.250000e-01 1.750000e-01 0.0
8.500000e-01 1.750000e-01 0.0
8.750000e-01 1.750000e-01 0.0
9.000000e-01 1.750000e-01 0.0
9.250000e-01 1.750000e-01 0.0
9.500000e-01 1.750000e-01 0.0
9.750000e-01 1.750000e-01 0.0
1.000000e+00 1.750000e-01 0.0
[...]
CELL_DATA 1600
SCALARS Temperature double 1
LOOKUP_TABLE default
6.740006e-01
1.939364e-01
2.455780e-02
-1.156818e-04
-6.478536e-06
2.658436e-06
5.023012e-07
1.676595e-07
8.215634e-08
3.853490e-08
1.766794e-08
7.920188e-09
3.480875e-09
1.557981e-09
2.448436e-10
-7.198952e-12
-2.489353e-12
-1.012572e-12
-2.281098e-13
-9.391977e-15
5.756709e-16
2.383199e-16
1.154829e-16
6.961645e-17
3.383690e-17
1.752593e-17
8.409024e-18
3.585957e-18
1.455579e-18
6.266461e-19
3.051602e-19
1.634979e-19
9.050916e-20
4.975177e-20
2.653002e-20
1.448690e-20
6.485877e-21
9.190148e-22
-2.856457e-23
-2.468075e-23
9.580330e-01
5.984793e-01
2.397697e-01
5.783619e-02
3.772767e-03
-6.632818e-05
-3.709565e-05
-1.801469e-05
-7.979114e-06
-3.713460e-06
-1.799230e-06
-8.082459e-07
-2.200793e-07
-2.839247e-10
1.164972e-09
1.065409e-09
3.836625e-10
4.673210e-11
9.714257e-14
-2.720577e-13
-4.449641e-14
-2.119993e-16
5.797063e-16
6.390145e-17
3.428726e-17
1.790740e-18
-2.426012e-17
-3.026672e-17
-2.359912e-17
-1.565620e-17
-1.028105e-17
-6.374715e-18
-3.751587e-18
-2.177113e-18
-1.283062e-18
-4.903530e-19
-7.922419e-20
-3.108961e-22
4.455842e-21
2.478079e-21
9.989644e-01
8.855527e-01
5.934969e-01
2.706906e-01
8.392131e-02
1.601861e-02
1.306354e-03
4.966654e-04
2.123303e-04
7.704870e-05
1.044933e-05
-9.874807e-07
-8.066850e-07
-4.797774e-07
-1.724704e-07
-1.586374e-08
1.289040e-09
4.708037e-10
1.572383e-10
-1.595343e-13
-5.016302e-13
-3.168051e-13
-2.330856e-15
2.310790e-15
1.510504e-15
9.359761e-16
4.668020e-16
1.755249e-16
2.914940e-17
-6.061510e-18
-9.475933e-18
-6.164957e-18
2.669724e-18
5.331755e-18
2.228474e-18
2.782380e-19
8.000816e-20
-8.649943e-20
-5.129108e-20
3.338470e-21
1.000090e+00
9.864059e-01
8.523197e-01
5.806586e-01
2.958820e-01
9.880472e-02
2.192901e-02
6.786005e-04
1.706545e-04
1.451619e-04
9.399394e-05
4.212438e-05
8.459328e-06
-4.229623e-07
-3.357543e-07
-2.239811e-07
-6.541629e-08
-4.006525e-10
1.564256e-10
2.525895e-10
1.165780e-10
6.494846e-12
-9.253533e-13
-3.404754e-13
-1.279789e-13
-5.906556e-14
-2.910567e-14
-1.444815e-14
-7.071774e-15
-3.369753e-15
-1.555746e-15
-6.716096e-16
-2.503000e-16
-7.630392e-17
-2.188112e-17
-5.463776e-18
-2.122091e-18
-1.207678e-18
-6.975292e-19
-3.192263e-19
1.000028e+00
9.999026e-01
9.650664e-01
8.296222e-01
5.645800e-01
3.365988e-01
1.267713e-01
3.473168e-02
2.665336e-03
1.829235e-04
7.332043e-05
6.253788e-05
4.424829e-05
1.952235e-05
2.859739e-06
-1.499441e-07
-1.921894e-07
-1.136921e-07
-3.053331e-08
2.766842e-10
1.463957e-10
1.237152e-10
7.052516e-11
3.590679e-11
1.695985e-11
7.665994e-12
3.387456e-12
1.470078e-12
6.189708e-13
2.488851e-13
9.508850e-14
3.407282e-14
9.712721e-15
2.227032e-15
2.649922e-16
-1.200829e-17
1.479101e-18
1.327583e-17
6.842472e-18
2.821077e-18
1.000005e+00
1.000029e+00
9.984813e-01
9.486239e-01
8.112990e-01
5.428756e-01
3.576403e-01
1.479966e-01
4.998357e-02
1.001417e-02
3.334019e-04
4.381244e-05
3.856594e-05
3.345633e-05
2.195267e-05
1.028962e-05
1.743942e-06
-1.107523e-07
-1.002037e-07
-5.771975e-08
-2.530035e-08
-1.101137e-08
-4.815412e-09
-2.114589e-09
-9.290840e-10
-4.034836e-10
-1.695015e-10
-6.737119e-11
-2.543662e-11
-8.508721e-12
-1.248733e-12
4.765143e-14
2.643230e-14
1.296611e-14
5.183168e-15
1.672658e-15
5.160136e-16
1.849555e-17
3.084979e-18
2.322829e-18
1.000000e+00
1.000003e+00
1.000005e+00
9.924168e-01
9.351543e-01
7.951063e-01
5.169314e-01
3.727648e-01
1.558916e-01
5.795483e-02
1.638035e-02
2.179102e-03
-2.227099e-05
2.505699e-05
2.226285e-05
1.675768e-05
1.083114e-05
5.523810e-06
2.411237e-06
8.923913e-07
2.467309e-07
1.031325e-07
6.082592e-08
2.761983e-08
1.062316e-08
3.640050e-09
1.000004e-09
2.011808e-10
2.157487e-11
-5.720589e-12
-6.303274e-12
-3.341384e-12
-1.033409e-12
-2.642375e-13
-5.937131e-14
-6.152015e-15
3.920393e-16
1.070531e-15
4.996825e-16
-2.904230e-18
1.000000e+00
1.000000e+00
1.000028e+00
9.998600e-01
9.851337e-01
9.219326e-01
7.794881e-01
5.215303e-01
3.778047e-01
1.661646e-01
6.506206e-02
2.095020e-02
6.181051e-03
1.521505e-03
4.241409e-05
-6.064689e-06
6.927518e-06
4.517565e-06
9.666171e-07
1.440958e-06
1.012286e-06
3.713583e-07
6.970974e-08
2.482356e-08
7.989763e-09
3.734739e-09
2.031656e-09
7.818897e-10
2.163937e-10
3.220009e-11
-4.317869e-12
-4.459594e-12
-2.255544e-12
-9.053873e-13
-2.995707e-13
-1.044835e-13
-2.954953e-14
5.413453e-16
1.660118e-15
1.253534e-15
1.000000e+00
1.000000e+00
1.000012e+00
1.000033e+00
9.988955e-01
9.786972e-01
9.080154e-01
7.696340e-01
5.231747e-01
3.784062e-01
1.819970e-01
7.063180e-02
2.040156e-02
6.094414e-03
3.382398e-03
1.574209e-03
6.609662e-04
2.245021e-04
4.481737e-05
3.198012e-06
1.593867e-06
1.017085e-06
5.698948e-07
2.746649e-07
1.139222e-07
2.648035e-08
2.437668e-09
6.247641e-10
2.411208e-12
-1.031838e-10
-1.429683e-11
6.570917e-13
-1.116810e-12
2.871226e-14
1.951184e-14
-1.041192e-13
-4.134573e-14
-3.480722e-14
-3.724018e-14
-2.637399e-14
1.000000e+00
1.000000e+00
1.000002e+00
1.000015e+00
1.000023e+00
9.972166e-01
9.710493e-01
8.968315e-01
7.611913e-01
5.271374e-01
3.624563e-01
2.093745e-01
8.965101e-02
2.319459e-02
3.655145e-03
1.338320e-03
6.760899e-04
4.901398e-04
2.468460e-04
6.320048e-05
1.258526e-06
8.733425e-07
7.374749e-08
2.018126e-07
2.007242e-07
1.391814e-07
7.039857e-08
1.764050e-08
4.217146e-11
-1.704701e-10
-2.259097e-10
-1.427561e-10
-5.739975e-11
-4.929131e-12
6.440010e-13
4.798999e-13
2.737943e-13
7.844392e-14
-2.907864e-14
-2.568820e-14
1.000000e+00
1.000000e+00
1.000000e+00
1.000007e+00
1.000008e+00
9.999683e-01
9.941323e-01
9.640975e-01
8.852321e-01
7.601849e-01
5.172175e-01
3.573769e-01
2.181846e-01
1.179999e-01
4.446053e-02
1.295531e-02
2.878304e-03
6.081233e-04
4.433037e-04
3.064730e-04
1.594792e-04
6.342492e-05
1.759269e-05
1.142469e-06
5.114086e-08
1.183587e-07
7.114451e-08
5.657930e-08
3.165509e-08
1.273406e-08
4.835736e-09
1.438114e-09
7.081860e-11
-4.151446e-11
-3.865818e-11
-2.006666e-11
-1.047793e-11
-5.422893e-12
-2.805626e-12
-1.152601e-12
1.000000e+00
1.000000e+00
1.000000e+00
1.000002e+00
1.000006e+00
1.000009e+00
9.996302e-01
9.916138e-01
9.548754e-01
8.801479e-01
7.517911e-01
5.142129e-01
3.480265e-01
1.989208e-01
1.048121e-01
4.452273e-02
1.535389e-02
4.000954e-03
5.295160e-04
3.041325e-04
1.660253e-04
9.763150e-05
5.485718e-05
2.599654e-05
7.592500e-06
1.630737e-06
1.845285e-07
5.383358e-08
3.228328e-08
1.732861e-08
7.367778e-09
2.028504e-09
1.150805e-09
7.083383e-10
3.241320e-10
1.341306e-10
5.202628e-11
1.846362e-11
5.764062e-12
1.237392e-12
1.000000e+00
1.000000e+00
1.000000e+00
1.000000e+00
1.000002e+00
1.000007e+00
9.999099e-01
9.997021e-01
9.868414e-01
9.491761e-01
8.736822e-01
7.413942e-01
5.220934e-01
3.809027e-01
2.126182e-01
1.124001e-01
4.949524e-02
1.901806e-02
6.143622e-03
1.532880e-03
4.557695e-04
1.859243e-04
9.823043e-05
5.274466e-05
2.406353e-05
8.805598e-06
2.695288e-06
6.243674e-07
8.832135e-08
1.335998e-08
5.828537e-09
1.596139e-09
5.535156e-10
5.951678e-10
3.345176e-10
4.973348e-11
2.489882e-11
1.373234e-11
-2.688346e-12
9.273319e-14
1.000000e+00
1.000000e+00
1.000000e+00
1.000000e+00
1.000000e+00
1.000004e+00
9.999638e-01
9.999852e-01
9.982735e-01
9.830383e-01
9.446235e-01
8.655083e-01
7.332477e-01
5.015213e-01
3.936442e-01
2.147169e-01
1.185457e-01
5.252176e-02
2.032980e-02
6.633728e-03
1.900521e-03
5.453917e-04
2.064049e-04
1.072568e-04
5.717747e-05
2.614353e-05
9.347559e-06
2.832960e-06
8.795572e-07
4.906987e-07
2.975007e-07
1.207716e-07
4.159258e-08
1.512002e-08
6.386810e-09
2.761675e-09
1.205062e-09
5.169415e-10
2.393616e-10
6.238409e-11
1.000000e+00
1.000000e+00
1.000000e+00
1.000000e+00
1.000000e+00
1.000002e+00
9.999848e-01
9.999872e-01
9.999988e-01
9.962639e-01
9.796009e-01
9.397680e-01
8.570282e-01
7.253127e-01
5.079232e-01
3.978878e-01
2.162134e-01
1.303018e-01
5.973226e-02
2.373594e-02
8.082701e-03
2.365107e-03
6.423839e-04
2.129627e-04
1.054266e-04
5.832556e-05
2.846532e-05
9.976825e-06
2.951975e-06
1.317527e-06
5.228082e-07
1.686179e-07
4.266369e-08
1.213488e-08
4.891474e-09
2.009953e-09
1.152231e-09
3.013544e-10
2.264206e-10
1.419000e-10
1.000000e+00
1.000000e+00
1.000000e+00
1.000000e+00
1.000000e+00
1.000001e+00
9.999958e-01
9.999887e-01
9.999918e-01
9.997735e-01
9.945371e-01
9.755195e-01
9.375080e-01
8.381433e-01
7.229025e-01
5.136396e-01
4.016207e-01
2.183633e-01
1.366976e-01
6.536855e-02
2.727376e-02
9.799649e-03
3.003052e-03
8.096706e-04
2.347463e-04
1.026087e-04
5.763604e-05
3.447276e-05
1.465092e-05
4.857574e-06
2.102016e-06
7.071591e-07
3.070476e-07
1.447015e-07
6.878998e-08
3.338378e-08
1.672593e-08
7.009332e-09
8.778403e-10
1.329761e-10
1.000000e+00
1.000000e+00
1.000000e+00
1.000000e+00
1.000000e+00
1.000000e+00
1.000000e+00
9.999933e-01
9.999937e-01
9.999658e-01
9.997272e-01
9.915733e-01
9.752366e-01
9.274454e-01
8.278104e-01
7.197790e-01
5.171694e-01
4.030381e-01
2.223563e-01
1.424316e-01
7.048623e-02
3.073372e-02
1.164746e-02
3.783163e-03
1.058647e-03
2.862640e-04
1.054191e-04
5.772284e-05
3.697495e-05
1.703903e-05
3.416748e-06
7.032920e-07
1.367888e-07
1.250734e-07
5.295978e-08
2.804078e-08
1.699396e-08
1.334098e-08
9.750422e-09
3.257539e-09
1.000000e+00
1.000000e+00
1.000000e+00
1.000000e+00
1.000000e+00
1.000000e+00
1.000000e+00
9.999972e-01
9.999972e-01
9.999816e-01
9.999918e-01
9.980623e-01
9.915349e-01
9.713708e-01
9.192335e-01
8.196316e-01
7.171129e-01
5.181258e-01
4.049437e-01
2.267805e-01
1.479532e-01
7.533782e-02
3.412540e-02
1.357168e-02
4.666904e-03
1.376688e-03
3.675149e-04
1.131194e-04
5.418930e-05
3.554827e-05
2.031202e-05
9.520591e-06
4.916413e-06
2.360295e-06
1.152142e-06
4.417949e-07
6.515126e-08
1.164397e-08
9.678826e-09
6.621791e-09
1.000000e+00
1.000000e+00
1.000000e+00
1.000000e+00
1.000000e+00
1.000000e+00
1.000000e+00
9.999989e-01
9.999989e-01
9.999907e-01
1.000004e+00
9.997289e-01
9.975665e-01
9.901004e-01
9.669233e-01
9.117419e-01
8.132109e-01
7.137836e-01
5.185053e-01
4.069322e-01
2.312956e-01
1.533314e-01
8.001771e-02
3.745447e-02
1.553175e-02
5.620644e-03
1.752760e-03
4.777489e-04
1.296509e-04
4.806806e-05
2.582391e-05
1.154091e-05
4.644227e-06
2.397372e-06
1.154859e-06
8.678964e-07
6.062973e-07
2.212727e-07
4.215109e-08
6.269222e-09
1.000000e+00
1.000000e+00
1.000000e+00
1.000000e+00
1.000000e+00
1.000000e+00
1.000000e+00
9.999996e-01
9.999997e-01
9.999957e-01
9.999995e-01
9.999937e-01
9.994717e-01
9.970381e-01
9.882334e-01
9.622140e-01
9.052760e-01
8.073340e-01
7.102055e-01
5.186205e-01
4.089018e-01
2.357908e-01
1.585622e-01
8.454219e-02
4.071159e-02
1.750576e-02
6.627714e-03
2.181320e-03
6.308246e-04
1.813960e-04
7.093070e-05
4.360725e-05
2.574291e-05
1.245648e-05
4.429422e-06
8.825162e-07
6.120199e-07
4.803420e-07
2.697817e-07
7.872520e-08
1.000000e+00
1.000000e+00
1.000000e+00
1.000000e+00
1.000000e+00
1.000000e+00
1.000000e+00
9.999998e-01
9.999999e-01
9.999979e-01
9.999984e-01
9.999987e-01
9.999522e-01
9.992654e-01
9.964049e-01
9.859709e-01
9.576977e-01
8.993738e-01
8.017426e-01
7.065937e-01
5.186351e-01
4.108352e-01
2.401843e-01
1.636088e-01
8.890599e-02
4.390493e-02
1.949972e-02
7.676089e-03
2.627689e-03
7.688975e-04
1.995352e-04
6.094201e-05
3.178669e-05
2.133550e-05
1.351289e-05
6.880596e-06
1.820122e-06
5.060433e-07
4.402135e-07
2.539625e-07
1.000000e+00
1.000000e+00
1.000000e+00
1.000000e+00
1.000000e+00
1.000000e+00
1.000000e+00
9.999999e-01
9.999999e-01
9.999992e-01
9.999985e-01
9.999986e-01
9.999998e-01
9.998679e-01
9.990819e-01
9.955579e-01
9.835475e-01
9.533504e-01
8.938244e-01
7.964117e-01
7.030911e-01
5.186022e-01
4.126722e-01
2.444109e-01
1.684597e-01
9.311181e-02
4.705235e-02
2.157378e-02
8.878753e-03
3.233445e-03
1.026311e-03
2.853615e-04
7.883092e-05
3.054910e-05
1.781978e-05
1.183674e-05
7.907881e-06
2.694219e-06
4.904691e-07
2.213913e-07
1.000000e+00
1.000000e+00
1.000000e+00
1.000000e+00
1.000000e+00
1.000000e+00
1.000000e+00
1.000000e+00
1.000000e+00
9.999998e-01
9.999991e-01
9.999987e-01
9.999987e-01
9.999896e-01
9.998120e-01
9.988325e-01
9.945233e-01
9.810239e-01
9.491306e-01
8.885845e-01
7.913261e-01
6.997368e-01
5.184880e-01
4.143538e-01
2.484800e-01
1.731779e-01
9.711679e-02
4.993199e-02
2.338866e-02
9.892323e-03
3.736985e-03
1.243771e-03
3.633600e-04
9.980279e-05
3.410089e-05
1.636489e-05
1.030080e-05
7.714528e-06
4.784741e-06
2.074371e-06
1.000000e+00
1.000000e+00
1.000000e+00
1.000000e+00
1.000000e+00
1.000000e+00
1.000000e+00
1.000000e+00
1.000000e+00
1.000000e+00
9.999997e-01
9.999990e-01
9.999988e-01
9.999990e-01
9.999739e-01
9.997572e-01
9.984884e-01
9.933392e-01
9.784589e-01
9.450468e-01
8.836571e-01
7.863744e-01
6.965652e-01
5.182975e-01
4.158071e-01
2.524486e-01
1.782047e-01
1.016677e-01
5.332106e-02
2.554757e-02
1.108415e-02
4.314444e-03
1.487806e-03
4.492721e-04
1.240778e-04
4.159678e-05
1.817214e-05
7.800295e-06
4.890361e-06
2.069453e-06
1.000000e+00
1.000000e+00
1.000000e+00
1.000000e+00
1.000000e+00
1.000000e+00
1.000000e+00
1.000000e+00
1.000000e+00
1.000000e+00
1.000000e+00
9.999997e-01
9.999990e-01
9.999990e-01
9.999980e-01
9.999618e-01
9.996710e-01
9.980462e-01
9.920518e-01
9.759058e-01
9.410628e-01
8.790740e-01
7.812782e-01
6.937919e-01
5.182403e-01
4.164781e-01
2.550611e-01
1.816871e-01
1.052662e-01
5.629868e-02
2.762539e-02
1.231198e-02
4.945634e-03
1.772300e-03
5.543218e-04
1.493324e-04
5.245224e-05
3.199479e-05
1.903088e-05
9.012455e-06
1.000000e+00
1.000000e+00
1.000000e+00
1.000000e+00
1.000000e+00
1.000000e+00
1.000000e+00
1.000000e+00
1.000000e+00
1.000000e+00
1.000000e+00
1.000000e+00
9.999995e-01
9.999991e-01
9.999992e-01
9.999952e-01
9.999473e-01
9.995474e-01
9.975243e-01
9.906986e-01
9.733837e-01
9.370585e-01
8.750990e-01
7.751712e-01
6.921525e-01
5.207427e-01
4.198737e-01
2.593150e-01
1.858459e-01
1.089124e-01
5.915970e-02
2.966171e-02
1.355140e-02
5.606919e-03
2.100459e-03
6.927659e-04
1.646620e-04
2.916840e-05
1.437572e-05
8.927956e-06
1.000000e+00
1.000000e+00
1.000000e+00
1.000000e+00
1.000000e+00
1.000000e+00
1.000000e+00
1.000000e+00
1.000000e+00
1.000000e+00
1.000000e+00
1.000000e+00
9.999999e-01
9.999994e-01
9.999994e-01
9.999988e-01
9.999932e-01
9.999240e-01
9.993878e-01
9.969254e-01
9.893074e-01
9.708621e-01
9.328380e-01
8.728644e-01
7.635953e-01
6.848090e-01
5.197676e-01
4.215910e-01
2.632838e-01
1.900522e-01
1.126184e-01
6.196298e-02
3.171374e-02
1.481590e-02
6.258348e-03
2.455603e-03
9.378759e-04
3.800639e-04
1.936616e-04
7.613710e-05
1.000000e+00
1.000000e+00
1.000000e+00
1.000000e+00
1.000000e+00
1.000000e+00
1.000000e+00
1.000000e+00
1.000000e+00
1.000000e+00
1.000000e+00
1.000000e+00
1.000000e+00
9.999997e-01
9.999997e-01
9.999993e-01
9.999983e-01
9.999912e-01
9.998919e-01
9.991867e-01
9.962314e-01
9.879893e-01
9.679463e-01
9.293058e-01
8.716479e-01
7.586089e-01
6.802159e-01
5.186648e-01
4.227677e-01
2.669323e-01
1.940781e-01
1.164079e-01
6.465032e-02
3.382696e-02
1.620093e-02
6.812260e-03
2.447812e-03
7.057514e-04
1.921189e-04
7.567242e-05
1.000000e+00
1.000000e+00
1.000000e+00
1.000000e+00
1.000000e+00
1.000000e+00
1.000000e+00
1.000000e+00
1.000000e+00
1.000000e+00
1.000000e+00
1.000000e+00
1.000000e+00
9.999999e-01
9.999999e-01
9.999996e-01
9.999990e-01
9.999989e-01
9.999852e-01
9.998592e-01
9.988857e-01
9.955940e-01
9.864800e-01
9.648664e-01
9.271578e-01
8.687742e-01
7.543124e-01
6.763965e-01
5.176410e-01
4.237024e-01
2.703955e-01
1.977244e-01
1.204981e-01
6.698506e-02
3.591640e-02
1.836239e-02
8.521473e-03
3.407416e-03
1.191356e-03
3.522326e-04
1.000000e+00
1.000000e+00
1.000000e+00
1.000000e+00
1.000000e+00
1.000000e+00
1.000000e+00
1.000000e+00
1.000000e+00
1.000000e+00
1.000000e+00
1.000000e+00
1.000000e+00
1.000000e+00
9.999999e-01
9.999998e-01
9.999994e-01
9.999994e-01
9.999929e-01
9.999935e-01
9.997677e-01
9.985757e-01
9.949802e-01
9.845501e-01
9.625992e-01
9.247374e-01
8.655168e-01
7.503293e-01
6.729914e-01
5.167072e-01
4.245185e-01
2.738929e-01
2.004192e-01
1.257707e-01
6.823922e-02
3.529843e-02
1.807274e-02
8.643528e-03
3.528407e-03
1.041138e-03
1.000000e+00
1.000000e+00
1.000000e+00
1.000000e+00
1.000000e+00
1.000000e+00
1.000000e+00
1.000000e+00
1.000000e+00
1.000000e+00
1.000000e+00
1.000000e+00
1.000000e+00
1.000000e+00
9.999999e-01
9.999999e-01
9.999996e-01
9.999997e-01
9.999973e-01
9.999944e-01
9.999887e-01
9.996195e-01
9.983743e-01
9.940471e-01
9.828611e-01
9.604896e-01
9.221449e-01
8.621201e-01
7.465594e-01
6.698818e-01
5.158326e-01
4.253211e-01
2.778695e-01
2.000719e-01
1.373684e-01
7.636141e-02
3.861350e-02
1.961192e-02
1.004158e-02
3.732209e-03
1.000000e+00
1.000000e+00
1.000000e+00
1.000000e+00
1.000000e+00
1.000000e+00
1.000000e+00
1.000000e+00
1.000000e+00
1.000000e+00
1.000000e+00
1.000000e+00
1.000000e+00
1.000000e+00
1.000000e+00
1.000000e+00
9.999998e-01
9.999998e-01
9.999994e-01
9.999958e-01
9.999961e-01
9.999298e-01
9.995545e-01
9.980239e-01
9.930914e-01
9.812975e-01
9.584082e-01
9.194490e-01
8.586713e-01
7.429790e-01
6.670251e-01
5.148289e-01
4.267273e-01
2.817729e-01
1.945250e-01
1.377542e-01
8.136944e-02
4.001891e-02
1.982405e-02
8.673357e-03
1.000000e+00
1.000000e+00
1.000000e+00
1.000000e+00
1.000000e+00
1.000000e+00
1.000000e+00
1.000000e+00
1.000000e+00
1.000000e+00
1.000000e+00
1.000000e+00
1.000000e+00
1.000000e+00
1.000000e+00
1.000000e+00
9.999999e-01
9.999998e-01
9.999998e-01
9.999980e-01
9.999980e-01
9.999924e-01
9.998979e-01
9.994472e-01
9.975963e-01
9.921413e-01
9.797816e-01
9.563141e-01
9.166957e-01
8.552041e-01
7.396759e-01
6.641341e-01
5.139568e-01
4.291305e-01
2.841732e-01
1.961797e-01
1.370042e-01
9.053735e-02
4.661107e-02
1.751965e-02
1.000000e+00
1.000000e+00
1.000000e+00
1.000000e+00
1.000000e+00
1.000000e+00
1.000000e+00
1.000000e+00
1.000000e+00
1.000000e+00
1.000000e+00
1.000000e+00
1.000000e+00
1.000000e+00
1.000000e+00
1.000000e+00
1.000000e+00
9.999999e-01
9.999999e-01
9.999992e-01
9.999985e-01
9.999986e-01
9.999824e-01
9.998744e-01
9.992992e-01
9.971260e-01
9.911923e-01
9.782749e-01
9.542152e-01
9.138847e-01
8.518477e-01
7.365581e-01
6.609480e-01
5.140799e-01
4.311049e-01
2.871041e-01
1.986276e-01
1.315686e-01
9.757363e-02
4.802670e-02
1.000000e+00
1.000000e+00
1.000000e+00
1.000000e+00
1.000000e+00
1.000000e+00
1.000000e+00
1.000000e+00
1.000000e+00
1.000000e+00
1.000000e+00
1.000000e+00
1.000000e+00
1.000000e+00
1.000000e+00
1.000000e+00
1.000000e+00
9.999999e-01
9.999999e-01
9.999998e-01
9.999990e-01
9.999990e-01
9.999972e-01
9.999769e-01
9.998363e-01
9.991115e-01
9.966261e-01
9.902314e-01
9.767833e-01
9.520900e-01
9.110766e-01
8.486918e-01
7.333013e-01
6.579401e-01
5.149170e-01
4.314208e-01
2.925292e-01
1.957687e-01
1.343499e-01
6.996212e-02
1.000000e+00
1.000000e+00
1.000000e+00
1.000000e+00
1.000000e+00
1.000000e+00
1.000000e+00
1.000000e+00
1.000000e+00
1.000000e+00
1.000000e+00
1.000000e+00
1.000000e+00
1.000000e+00
1.000000e+00
1.000000e+00
1.000000e+00
1.000000e+00
1.000000e+00
1.000000e+00
9.999996e-01
9.999992e-01
9.999991e-01
9.999956e-01
9.999713e-01
9.997779e-01
9.988950e-01
9.960976e-01
9.892694e-01
9.753053e-01
9.499017e-01
9.084735e-01
8.453681e-01
7.304011e-01
6.551724e-01
5.158460e-01
4.320913e-01
3.013408e-01
2.301744e-01
1.306612e-01
1.000000e+00
1.000000e+00
1.000000e+00
1.000000e+00
1.000000e+00
1.000000e+00
1.000000e+00
1.000000e+00
1.000000e+00
1.000000e+00
1.000000e+00
1.000000e+00
1.000000e+00
1.000000e+00
1.000000e+00
1.000000e+00
1.000000e+00
1.000000e+00
1.000000e+00
1.000000e+00
9.999999e-01
9.999995e-01
9.999995e-01
9.999985e-01
9.999958e-01
9.999590e-01
9.997017e-01
9.986549e-01
9.955419e-01
9.883338e-01
9.737762e-01
9.477342e-01
9.060737e-01
8.411589e-01
7.291807e-01
6.490525e-01
5.177053e-01
4.056821e-01
3.141977e-01
1.760148e-01
1.000000e+00
1.000000e+00
1.000000e+00
1.000000e+00
1.000000e+00
1.000000e+00
1.000000e+00
1.000000e+00
1.000000e+00
1.000000e+00
1.000000e+00
1.000000e+00
1.000000e+00
1.000000e+00
1.000000e+00
1.000000e+00
1.000000e+00
1.000000e+00
1.000000e+00
1.000000e+00
1.000000e+00
9.999997e-01
9.999997e-01
9.999993e-01
9.999986e-01
9.999950e-01
9.999390e-01
9.996112e-01
9.983904e-01
9.949755e-01
9.874306e-01
9.722106e-01
9.458968e-01
9.044576e-01
8.365653e-01
7.356469e-01
6.638178e-01
5.086390e-01
4.668109e-01
2.882384e-01
1.000000e+00
1.000000e+00
1.000000e+00