# vtk DataFile Version 3.0
QUICK_DC(JC)
ASCII
DATASET STRUCTURED_GRID
DIMENSIONS 41 41 1
POINTS 1681 double
0.000000e+00 0.000000e+00 0.0
2.500000e-02 0.000000e+00 0.0
5.000000e-02 0.000000e+00 0.0
7.500000e-02 0.000000e+00 0.0
1.000000e-01 0.000000e+00 0.0
1.250000e-01 0.000000e+00 0.0
1.500000e-01 0.000000e+00 0.0
1.750000e-01 0.000000e+00 0.0
2.000000e-01 0.000000e+00 0.0
2.250000e-01 0.000000e+00 0.0
2.500000e-01 0.000000e+00 0.0
2.750000e-01 0.000000e+00 0.0
3.000000e-01 0.000000e+00 0.0
3.250000e-01 0.000000e+00 0.0
3.500000e-01 0.000000e+00 0.0
3.750000e-01 0.000000e+00 0.0
4.000000e-01 0.000000e+00 0.0
4.250000e-01 0.000000e+00 0.0
4.500000e-01 0.000000e+00 0.0
4.750000e-01 0.000000e+00 0.0
5.000000e-01 0.000000e+00 0.0
5.250000e-01 0.000000e+00 0.0
5.500000e-01 0.000000e+00 0.0
5.750000e-01 0.000000e+00 0.0
6.000000e-01 0.000000e+00 0.0
6.250000e-01 0.000000e+00 0.0
6.500000e-01 0.000000e+00 0.0
6.750000e-01 0.000000e+00 0.0
7.000000e-01 0.000000e+00 0.0
7.250000e-01 0.000000e+00 0.0
7.500000e-01 0.000000e+00 0.0
7.750000e-01 0.000000e+00 0.0
8.000000e-01 0.000000e+00 0.0
8.250000e-01 0.000000e+00 0.0
8.500000e-01 0.000000e+00 0.0
8.750000e-01 0.000000e+00 0.0
9.000000e-01 0.000000e+00 0.0
9.250000e-01 0.000000e+00 0.0
9.500000e-01 0.000000e+00 0.0
9.750000e-01 0.000000e+00 0.0
1.000000e+00 0.000000e+00 0.0
0.000000e+00 2.500000e-02 0.0
2.500000e-02 2.500000e-02 0.0
5.000000e-02 2.500000e-02 0.0
7.500000e-02 2.500000e-02 0.0
1.000000e-01 2.500000e-02 0.0
1.250000e-01 2.500000e-02 0.0
1.500000e-01 2.500000e-02 0.0
1.750000e-01 2.500000e-02 0.0
2.000000e-01 2.500000e-02 0.0
2.250000e-01 2.500000e-02 0.0
2.500000e-01 2.500000e-02 0.0
2.750000e-01 2.500000e-02 0.0
3.000000e-01 2.500000e-02 0.0
3.250000e-01 2.500000e-02 0.0
3.500000e-01 2.500000e-02 0.0
3.750000e-01 2.500000e-02 0.0
4.000000e-01 2.500000e-02 0.0
4.250000e-01 2.500000e-02 0.0
4.500000e-01 2.500000e-02 0.0
4.750000e-01 2.500000e-02 0.0
5.000000e-01 2.500000e-02 0.0
5.250000e-01 2.500000e-02 0.0
5.500000e-01 2.500000e-02 0.0
5.750000e-01 2.500000e-02 0.0
6.000000e-01 2.500000e-02 0.0
6.250000e-01 2.500000e-02 0.0
6.500000e-01 2.500000e-02 0.0
6.750000e-01 2.500000e-02 0.0
7.000000e-01 2.500000e-02 0.0
7.250000e-01 2.500000e-02 0.0
7.500000e-01 2.500000e-02 0.0
7.750000e-01 2.500000e-02 0.0
8.000000e-01 2.500000e-02 0.0
8.250000e-01 2.500000e-02 0.0
8.500000e-01 2.500000e-02 0.0
8.750000e-01 2.500000e-02 0.0
9.000000e-01 2.500000e-02 0.0
9.250000e-01 2.500000e-02 0.0
9.500000e-01 2.500000e-02 0.0
9.750000e-01 2.500000e-02 0.0
1.000000e+00 2.500000e-02 0.0
0.000000e+00 5.000000e-02 0.0
2.500000e-02 5.000000e-02 0.0
5.000000e-02 5.000000e-02 0.0
7.500000e-02 5.000000e-02 0.0
1.000000e-01 5.000000e-02 0.0
1.250000e-01 5.000000e-02 0.0
1.500000e-01 5.000000e-02 0.0
1.750000e-01 5.000000e-02 0.0
2.000000e-01 5.000000e-02 0.0
2.250000e-01 5.000000e-02 0.0
2.500000e-01 5.000000e-02 0.0
2.750000e-01 5.000000e-02 0.0
3.000000e-01 5.000000e-02 0.0
3.250000e-01 5.000000e-02 0.0
3.500000e-01 5.000000e-02 0.0
3.750000e-01 5.000000e-02 0.0
4.000000e-01 5.000000e-02 0.0
4.250000e-01 5.000000e-02 0.0
4.500000e-01 5.000000e-02 0.0
4.750000e-01 5.000000e-02 0.0
5.000000e-01 5.000000e-02 0.0
5.250000e-01 5.000000e-02 0.0
5.500000e-01 5.000000e-02 0.0
5.750000e-01 5.000000e-02 0.0
6.000000e-01 5.000000e-02 0.0
6.250000e-01 5.000000e-02 0.0
6.500000e-01 5.000000e-02 0.0
6.750000e-01 5.000000e-02 0.0
7.000000e-01 5.000000e-02 0.0
7.250000e-01 5.000000e-02 0.0
7.500000e-01 5.000000e-02 0.0
7.750000e-01 5.000000e-02 0.0
8.000000e-01 5.000000e-02 0.0
8.250000e-01 5.000000e-02 0.0
8.500000e-01 5.000000e-02 0.0
8.750000e-01 5.000000e-02 0.0
9.000000e-01 5.000000e-02 0.0
9.250000e-01 5.000000e-02 0.0
9.500000e-01 5.000000e-02 0.0
9.750000e-01 5.000000e-02 0.0
1.000000e+00 5.000000e-02 0.0
0.000000e+00 7.500000e-02 0.0
2.500000e-02 7.500000e-02 0.0
5.000000e-02 7.500000e-02 0.0
7.500000e-02 7.500000e-02 0.0
1.000000e-01 7.500000e-02 0.0
1.250000e-01 7.500000e-02 0.0
1.500000e-01 7.500000e-02 0.0
1.750000e-01 7.500000e-02 0.0
2.000000e-01 7.500000e-02 0.0
2.250000e-01 7.500000e-02 0.0
2.500000e-01 7.500000e-02 0.0
2.750000e-01 7.500000e-02 0.0
3.000000e-01 7.500000e-02 0.0
3.250000e-01 7.500000e-02 0.0
3.500000e-01 7.500000e-02 0.0
3.750000e-01 7.500000e-02 0.0
4.000000e-01 7.500000e-02 0.0
4.250000e-01 7.500000e-02 0.0
4.500000e-01 7.500000e-02 0.0
4.750000e-01 7.500000e-02 0.0
5.000000e-01 7.500000e-02 0.0
5.250000e-01 7.500000e-02 0.0
5.500000e-01 7.500000e-02 0.0
5.750000e-01 7.500000e-02 0.0
6.000000e-01 7.500000e-02 0.0
6.250000e-01 7.500000e-02 0.0
6.500000e-01 7.500000e-02 0.0
6.750000e-01 7.500000e-02 0.0
7.000000e-01 7.500000e-02 0.0
7.250000e-01 7.500000e-02 0.0
7.500000e-01 7.500000e-02 0.0
7.750000e-01 7.500000e-02 0.0
8.000000e-01 7.500000e-02 0.0
8.250000e-01 7.500000e-02 0.0
8.500000e-01 7.500000e-02 0.0
8.750000e-01 7.500000e-02 0.0
9.000000e-01 7.500000e-02 0.0
9.250000e-01 7.500000e-02 0.0
9.500000e-01 7.500000e-02 0.0
9.750000e-01 7.500000e-02 0.0
1.000000e+00 7.500000e-02 0.0
0.000000e+00 1.000000e-01 0.0
2.500000e-02 1.000000e-01 0.0
5.000000e-02 1.000000e-01 0.0
7.500000e-02 1.000000e-01 0.0
1.000000e-01 1.000000e-01 0.0
1.250000e-01 1.000000e-01 0.0
1.500000e-01 1.000000e-01 0.0
1.750000e-01 1.000000e-01 0.0
2.000000e-01 1.000000e-01 0.0
2.250000e-01 1.000000e-01 0.0
2.500000e-01 1.000000e-01 0.0
2.750000e-01 1.000000e-01 0.0
3.000000e-01 1.000000e-01 0.0
3.250000e-01 1.000000e-01 0.0
3.500000e-01 1.000000e-01 0.0
3.750000e-01 1.000000e-01 0.0
4.000000e-01 1.000000e-01 0.0
4.250000e-01 1.000000e-01 0.0
4.500000e-01 1.000000e-01 0.0
4.750000e-01 1.000000e-01 0.0
5.000000e-01 1.000000e-01 0.0
5.250000e-01 1.000000e-01 0.0
5.500000e-01 1.000000e-01 0.0
5.750000e-01 1.000000e-01 0.0
6.000000e-01 1.000000e-01 0.0
6.250000e-01 1.000000e-01 0.0
6.500000e-01 1.000000e-01 0.0
6.750000e-01 1.000000e-01 0.0
7.000000e-01 1.000000e-01 0.0
7.250000e-01 1.000000e-01 0.0
7.500000e-01 1.000000e-01 0.0
7.750000e-01 1.000000e-01 0.0
8.000000e-01 1.000000e-01 0.0
8.250000e-01 1.000000e-01 0.0
8.500000e-01 1.000000e-01 0.0
8.750000e-01 1.000000e-01 0.0
9.000000e-01 1.000000e-01 0.0
9.250000e-01 1.000000e-01 0.0
9.500000e-01 1.000000e-01 0.0
9.750000e-01 1.000000e-01 0.0
1.000000e+00 1.000000e-01 0.0
0.000000e+00 1.250000e-01 0.0
2.500000e-02 1.250000e-01 0.0
5.000000e-02 1.250000e-01 0.0
7.500000e-02 1.250000e-01 0.0
1.000000e-01 1.250000e-01 0.0
1.250000e-01 1.250000e-01 0.0
1.500000e-01 1.250000e-01 0.0
1.750000e-01 1.250000e-01 0.0
2.000000e-01 1.250000e-01 0.0
2.250000e-01 1.250000e-01 0.0
2.500000e-01 1.250000e-01 0.0
2.750000e-01 1.250000e-01 0.0
3.000000e-01 1.250000e-01 0.0
3.250000e-01 1.250000e-01 0.0
3.500000e-01 1.250000e-01 0.0
3.750000e-01 1.250000e-01 0.0
4.000000e-01 1.250000e-01 0.0
4.250000e-01 1.250000e-01 0.0
4.500000e-01 1.250000e-01 0.0
4.750000e-01 1.250000e-01 0.0
5.000000e-01 1.250000e-01 0.0
5.250000e-01 1.250000e-01 0.0
5.500000e-01 1.250000e-01 0.0
5.750000e-01 1.250000e-01 0.0
6.000000e-01 1.250000e-01 0.0
6.250000e-01 1.250000e-01 0.0
6.500000e-01 1.250000e-01 0.0
6.750000e-01 1.250000e-01 0.0
7.000000e-01 1.250000e-01 0.0
7.250000e-01 1.250000e-01 0.0
7.500000e-01 1.250000e-01 0.0
7.750000e-01 1.250000e-01 0.0
8.000000e-01 1.250000e-01 0.0
8.250000e-01 1.250000e-01 0.0
8.500000e-01 1.250000e-01 0.0
8.750000e-01 1.250000e-01 0.0
9.000000e-01 1.250000e-01 0.0
9.250000e-01 1.250000e-01 0.0
9.500000e-01 1.250000e-01 0.0
9.750000e-01 1.250000e-01 0.0
1.000000e+00 1.250000e-01 0.0
0.000000e+00 1.500000e-01 0.0
2.500000e-02 1.500000e-01 0.0
5.000000e-02 1.500000e-01 0.0
7.500000e-02 1.500000e-01 0.0
1.000000e-01 1.500000e-01 0.0
1.250000e-01 1.500000e-01 0.0
1.500000e-01 1.500000e-01 0.0
1.750000e-01 1.500000e-01 0.0
2.000000e-01 1.500000e-01 0.0
2.250000e-01 1.500000e-01 0.0
2.500000e-01 1.500000e-01 0.0
2.750000e-01 1.500000e-01 0.0
3.000000e-01 1.500000e-01 0.0
3.250000e-01 1.500000e-01 0.0
3.500000e-01 1.500000e-01 0.0
3.750000e-01 1.500000e-01 0.0
4.000000e-01 1.500000e-01 0.0
4.250000e-01 1.500000e-01 0.0
4.500000e-01 1.500000e-01 0.0
4.750000e-01 1.500000e-01 0.0
5.000000e-01 1.500000e-01 0.0
5.250000e-01 1.500000e-01 0.0
5.500000e-01 1.500000e-01 0.0
5.750000e-01 1.500000e-01 0.0
6.000000e-01 1.500000e-01 0.0
6.250000e-01 1.500000e-01 0.0
6.500000e-01 1.500000e-01 0.0
6.750000e-01 1.500000e-01 0.0
7.000000e-01 1.500000e-01 0.0
7.250000e-01 1.500000e-01 0.0
7.500000e-01 1.500000e-01 0.0
7.750000e-01 1.500000e-01 0.0
8.000000e-01 1.500000e-01 0.0
8.250000e-01 1.500000e-01 0.0
8.500000e-01 1.500000e-01 0.0
8.750000e-01 1.500000e-01 0.0
9.000000e-01 1.500000e-01 0.0
9.250000e-01 1.500000e-01 0.0
9.500000e-01 1.500000e-01 0.0
9.750000e-01 1.500000e-01 0.0
1.000000e+00 1.500000e-01 0.0
0.000000e+00 1.750000e-01 0.0
2.500000e-02 1.750000e-01 0.0
5.000000e-02 1.750000e-01 0.0
7.500000e-02 1.750000e-01 0.0
1.000000e-01 1.750000e-01 0.0
1.250000e-01 1.750000e-01 0.0
1.500000e-01 1.750000e-01 0.0
1.750000e-01 1.750000e-01 0.0
2.000000e-01 1.750000e-01 0.0
2.250000e-01 1.750000e-01 0.0
2.500000e-01 1.750000e-01 0.0
2.750000e-01 1.750000e-01 0.0
3.000000e-01 1.750000e-01 0.0
3.250000e-01 1.750000e-01 0.0
3.500000e-01 1.750000e-01 0.0
3.750000e-01 1.750000e-01 0.0
4.000000e-01 1.750000e-01 0.0
4.250000e-01 1.750000e-01 0.0
4.500000e-01 1.750000e-01 0.0
4.750000e-01 1.750000e-01 0.0
5.000000e-01 1.750000e-01 0.0
5.250000e-01 1.750000e-01 0.0
5.500000e-01 1.750000e-01 0.0
5.750000e-01 1.750000e-01 0.0
6.000000e-01 1.750000e-01 0.0
6.250000e-01 1.750000e-01 0.0
6.500000e-01 1.750000e-01 0.0
6.750000e-01 1.750000e-01 0.0
7.000000e-01 1.750000e-01 0.0
7.250000e-01 1.750000e-01 0.0
7.500000e-01 1.750000e-01 0.0
7.750000e-01 1.750000e-01 0.0
8.000000e-01 1.750000e-01 0.0
8.250000e-01 1.750000e-01 0.0
8.500000e-01 1.750000e-01 0.0
8.750000e-01 1.750000e-01 0.0
9.000000e-01 1.750000e-01 0.0
9.250000e-01 1.750000e-01 0.0
9.500000e-01 1.750000e-01 0.0
9.750000e-01 1.750000e-01 0.0
1.000000e+00 1.750000e-01 0.0
0.000000e+00 2.000000e-01 0.0
[...]
CELL_DATA 1600
SCALARS Temperature double 1
LOOKUP_TABLE default
5.000000e-01
2.250011e-01
1.317089e-01
9.125975e-02
6.963574e-02
5.624288e-02
4.711078e-02
4.047202e-02
3.542346e-02
3.145380e-02
2.825091e-02
2.561304e-02
2.340389e-02
2.152802e-02
1.991660e-02
1.851873e-02
1.729599e-02
1.621886e-02
1.526427e-02
1.441399e-02
1.365339e-02
1.297068e-02
1.235619e-02
1.180200e-02
1.130156e-02
1.084940e-02
1.044098e-02
1.007250e-02
9.740772e-03
9.443144e-03
9.177410e-03
8.941752e-03
8.734689e-03
8.555043e-03
8.401907e-03
8.274623e-03
8.172765e-03
8.096126e-03
8.044715e-03
8.018751e-03
7.749989e-01
5.000000e-01
3.471504e-01
2.587062e-01
2.037045e-01
1.669946e-01
1.409998e-01
1.217089e-01
1.068570e-01
9.508545e-02
8.553520e-02
7.763837e-02
7.100526e-02
6.535993e-02
6.050166e-02
5.628114e-02
5.258504e-02
4.932591e-02
4.643524e-02
4.385866e-02
4.155253e-02
3.948149e-02
3.761663e-02
3.593416e-02
3.441435e-02
3.304081e-02
3.179983e-02
3.067996e-02
2.967161e-02
2.876676e-02
2.795876e-02
2.724213e-02
2.661238e-02
2.606597e-02
2.560016e-02
2.521296e-02
2.490309e-02
2.466993e-02
2.451352e-02
2.443453e-02
8.682911e-01
6.528496e-01
5.000000e-01
3.948594e-01
3.215659e-01
2.689521e-01
2.299311e-01
2.000922e-01
1.766540e-01
1.578166e-01
1.423802e-01
1.295214e-01
1.186593e-01
1.093740e-01
1.013555e-01
9.436991e-02
8.823828e-02
8.282126e-02
7.800901e-02
7.371387e-02
6.986517e-02
6.640543e-02
6.328750e-02
6.047244e-02
5.792793e-02
5.562704e-02
5.354720e-02
5.166955e-02
4.997824e-02
4.846006e-02
4.710400e-02
4.590097e-02
4.484358e-02
4.392596e-02
4.314357e-02
4.249314e-02
4.197256e-02
4.158082e-02
4.131801e-02
4.118529e-02
9.087403e-01
7.412938e-01
6.051406e-01
5.000000e-01
4.199216e-01
3.585995e-01
3.109671e-01
2.733199e-01
2.430351e-01
2.182660e-01
1.977020e-01
1.804001e-01
1.656713e-01
1.530034e-01
1.420098e-01
1.323940e-01
1.239258e-01
1.164239e-01
1.097442e-01
1.037706e-01
9.840896e-02
9.358226e-02
8.922702e-02
8.529062e-02
8.172922e-02
7.850615e-02
7.559067e-02
7.295695e-02
7.058332e-02
6.845164e-02
6.654679e-02
6.485630e-02
6.337000e-02
6.207982e-02
6.097953e-02
6.006464e-02
5.933229e-02
5.878114e-02
5.841135e-02
5.822459e-02
9.303643e-01
7.962955e-01
6.784341e-01
5.800784e-01
5.000000e-01
4.352922e-01
3.828793e-01
3.400982e-01
3.048240e-01
2.754211e-01
2.506472e-01
2.295604e-01
2.114433e-01
1.957453e-01
1.820394e-01
1.699915e-01
1.593375e-01
1.498666e-01
1.414087e-01
1.338260e-01
1.270055e-01
1.208541e-01
1.152947e-01
1.102630e-01
1.057050e-01
1.015757e-01
9.783699e-02
9.445684e-02
9.140830e-02
8.866880e-02
8.621948e-02
8.404475e-02
8.213193e-02
8.047091e-02
7.905395e-02
7.787547e-02
7.693193e-02
7.622174e-02
7.574520e-02
7.550450e-02
9.437571e-01
8.330054e-01
7.310479e-01
6.414005e-01
5.647078e-01
5.000000e-01
4.456619e-01
3.999853e-01
3.614200e-01
3.286557e-01
3.006233e-01
2.764656e-01
2.554997e-01
2.371823e-01
2.210796e-01
2.068439e-01
1.941947e-01
1.829043e-01
1.727867e-01
1.636891e-01
1.554851e-01
1.480695e-01
1.413547e-01
1.352669e-01
1.297443e-01
1.247346e-01
1.201937e-01
1.160842e-01
1.123746e-01
1.090386e-01
1.060539e-01
1.034023e-01
1.010688e-01
9.904170e-02
9.731180e-02
9.587262e-02
9.472007e-02
9.385240e-02
9.327012e-02
9.297598e-02
9.528892e-01
8.590002e-01
7.700689e-01
6.890329e-01
6.171207e-01
5.543381e-01
5.000000e-01
4.531253e-01
4.126762e-01
3.776809e-01
3.472841e-01
3.207581e-01
2.974950e-01
2.769922e-01
2.588355e-01
2.426840e-01
2.282567e-01
2.153210e-01
2.036841e-01
1.931853e-01
1.836903e-01
1.750861e-01
1.672779e-01
1.601852e-01
1.537400e-01
1.478848e-01
1.425704e-01
1.377554e-01
1.334047e-01
1.294885e-01
1.259820e-01
1.228648e-01
1.201200e-01
1.177343e-01
1.156976e-01
1.140025e-01
1.126447e-01
1.116222e-01
1.109360e-01
1.105893e-01
9.595280e-01
8.782911e-01
7.999078e-01
7.266801e-01
6.599018e-01
6.000147e-01
5.468747e-01
5.000000e-01
4.587546e-01
4.224655e-01
3.904887e-01
3.622400e-01
3.372066e-01
3.149468e-01
2.950842e-01
2.773001e-01
2.613254e-01
2.469333e-01
2.339320e-01
2.221596e-01
2.114790e-01
2.017737e-01
1.929447e-01
1.849077e-01
1.775906e-01
1.709322e-01
1.648801e-01
1.593895e-01
1.544227e-01
1.499475e-01
1.459370e-01
1.423689e-01
1.392251e-01
1.364910e-01
1.341557e-01
1.322114e-01
1.306534e-01
1.294800e-01
1.286922e-01
1.282943e-01
9.645765e-01
8.931430e-01
8.233460e-01
7.569649e-01
6.951760e-01
6.385800e-01
5.873239e-01
5.412454e-01
5.000000e-01
4.631547e-01
4.302511e-01
4.008434e-01
3.745180e-01
3.509032e-01
3.296707e-01
3.105342e-01
2.932457e-01
2.775917e-01
2.633886e-01
2.504786e-01
2.387264e-01
2.280156e-01
2.182465e-01
2.093331e-01
2.012017e-01
1.937889e-01
1.870402e-01
1.809091e-01
1.753558e-01
1.703467e-01
1.658535e-01
1.618526e-01
1.583247e-01
1.552548e-01
1.526312e-01
1.504460e-01
1.486943e-01
1.473746e-01
1.464885e-01
1.460408e-01
9.685462e-01
9.049146e-01
8.421834e-01
7.817340e-01
7.245789e-01
6.713443e-01
6.223191e-01
5.775345e-01
5.368453e-01
5.000000e-01
4.666924e-01
4.365983e-01
4.093983e-01
3.847911e-01
3.625006e-01
3.422782e-01
3.239029e-01
3.071801e-01
2.919390e-01
2.780306e-01
2.653252e-01
2.537098e-01
2.430864e-01
2.333699e-01
2.244866e-01
2.163727e-01
2.089732e-01
2.022406e-01
1.961344e-01
1.906201e-01
1.856684e-01
1.812553e-01
1.773609e-01
1.739697e-01
1.710700e-01
1.686535e-01
1.667157e-01
1.652554e-01
1.642747e-01
1.637791e-01
9.717491e-01
9.144648e-01
8.576198e-01
8.022980e-01
7.493528e-01
6.993767e-01
6.527159e-01
6.095114e-01
5.697489e-01
5.333076e-01
5.000000e-01
4.696033e-01
4.418810e-01
4.165982e-01
3.935301e-01
3.724676e-01
3.532195e-01
3.356132e-01
3.194944e-01
3.047259e-01
2.911864e-01
2.787690e-01
2.673798e-01
2.569364e-01
2.473671e-01
2.386089e-01
2.306076e-01
2.233158e-01
2.166930e-01
2.107046e-01
2.053214e-01
2.005190e-01
1.962775e-01
1.925814e-01
1.894190e-01
1.867823e-01
1.846670e-01
1.830724e-01
1.820013e-01
1.814599e-01
9.743870e-01
9.223616e-01
8.704787e-01
8.195999e-01
7.704396e-01
7.235344e-01
6.792419e-01
6.377601e-01
5.991567e-01
5.634017e-01
5.303968e-01
5.000000e-01
4.720453e-01
4.463563e-01
4.227562e-01
4.010744e-01
3.811499e-01
3.628337e-01
3.459897e-01
3.304947e-01
3.162379e-01
3.031205e-01
2.910544e-01
2.799617e-01
2.697737e-01
2.604301e-01
2.518778e-01
2.440712e-01
2.369703e-01
2.305412e-01
2.247551e-01
2.195881e-01
2.150206e-01
2.110373e-01
2.076269e-01
2.047820e-01
2.024987e-01
2.007768e-01
1.996200e-01
1.990352e-01
9.765961e-01
9.289947e-01
8.813408e-01
8.343287e-01
7.885567e-01
7.445003e-01
7.025050e-01
6.627934e-01
6.254820e-01
5.906017e-01
5.581190e-01
5.279548e-01
5.000000e-01
4.741288e-01
4.502070e-01
4.280997e-01
4.076751e-01
3.888079e-01
3.713809e-01
3.552859e-01
3.404240e-01
3.267056e-01
3.140500e-01
3.023848e-01
2.916458e-01
2.817759e-01
2.727249e-01
2.644489e-01
2.569096e-01
2.500745e-01
2.439156e-01
2.384098e-01
2.335384e-01
2.292868e-01
2.256442e-01
2.226038e-01
2.201626e-01
2.183211e-01
2.170835e-01
2.164578e-01
9.784720e-01
9.346401e-01
8.906260e-01
8.469966e-01
8.042548e-01
7.628178e-01
7.230078e-01
6.850532e-01
6.490968e-01
6.152089e-01
5.834019e-01
5.536438e-01
5.258713e-01
5.000000e-01
4.759330e-01
4.535671e-01
4.327977e-01
4.135222e-01
3.956421e-01
3.790645e-01
3.637030e-01
3.494781e-01
3.363172e-01
3.241545e-01
3.129310e-01
3.025938e-01
2.930960e-01
2.843964e-01
2.764591e-01
2.692532e-01
2.627523e-01
2.569345e-01
2.517822e-01
2.472817e-01
2.434233e-01
2.402010e-01
2.376124e-01
2.356591e-01
2.343460e-01
2.336820e-01
9.800834e-01
9.394983e-01
8.986445e-01
8.579903e-01
8.179607e-01
7.789205e-01
7.411645e-01
7.049158e-01
6.703293e-01
6.374995e-01
6.064700e-01
5.772438e-01
5.497930e-01
5.240670e-01
5.000000e-01
4.775168e-01
4.565370e-01
4.369792e-01
4.187627e-01
4.018096e-01
3.860462e-01
3.714034e-01
3.578171e-01
3.452287e-01
3.335849e-01
3.228378e-01
3.129443e-01
3.038667e-01
2.955715e-01
2.880302e-01
2.812183e-01
2.751156e-01
2.697058e-01
2.649765e-01
2.609190e-01
2.575284e-01
2.548034e-01
2.527464e-01
2.513632e-01
2.506637e-01
9.814813e-01
9.437189e-01
9.056301e-01
8.676060e-01
8.300085e-01
7.931562e-01
7.573160e-01
7.227000e-01
6.894659e-01
6.577219e-01
6.275325e-01
5.989257e-01
5.719004e-01
5.464330e-01
5.224833e-01
5.000000e-01
4.789244e-01
4.591938e-01
4.407441e-01
4.235120e-01
4.074358e-01
3.924567e-01
3.785196e-01
3.655733e-01
3.535706e-01
3.424687e-01
3.322292e-01
3.228178e-01
3.142042e-01
3.063625e-01
2.992704e-01
2.929098e-01
2.872658e-01
2.823277e-01
2.780882e-01
2.745433e-01
2.716929e-01
2.695404e-01
2.680926e-01
2.673604e-01
9.827040e-01
9.474150e-01
9.117617e-01
8.760743e-01
8.406625e-01
8.058054e-01
7.717434e-01
7.386746e-01
7.067544e-01
6.760972e-01
6.467806e-01
6.188502e-01
5.923250e-01
5.672023e-01
5.434631e-01
5.210757e-01
5.000001e-01
4.801904e-01
4.615977e-01
4.441719e-01
4.278629e-01
4.126221e-01
3.984030e-01
3.851617e-01
3.728577e-01
3.614535e-01
3.509153e-01
3.412126e-01
3.323189e-01
3.242109e-01
3.168689e-01
3.102768e-01
3.044219e-01
2.992949e-01
2.948901e-01
2.912048e-01
2.882401e-01
2.860003e-01
2.844936e-01
2.837313e-01
9.837811e-01
9.506741e-01
9.171788e-01
8.835761e-01
8.501335e-01
8.170958e-01
7.846791e-01
7.530668e-01
7.224084e-01
6.928200e-01
6.643869e-01
6.371664e-01
6.111922e-01
5.864779e-01
5.630209e-01
5.408063e-01
5.198097e-01
5.000001e-01
4.813418e-01
4.637969e-01
4.473262e-01
4.318906e-01
4.174520e-01
4.039739e-01
3.914220e-01
3.797645e-01
3.689721e-01
3.590189e-01
3.498815e-01
3.415399e-01
3.339772e-01
3.271795e-01
3.211363e-01
3.158400e-01
3.112863e-01
3.074743e-01
3.044062e-01
3.020875e-01
3.005272e-01
2.997377e-01
9.847357e-01
9.535648e-01
9.219910e-01
8.902558e-01
8.585913e-01
8.272133e-01
7.963160e-01
7.660681e-01
7.366115e-01
7.080611e-01
6.805057e-01
6.540104e-01
6.286192e-01
6.043580e-01
5.812374e-01
5.592560e-01
5.384024e-01
5.186583e-01
5.000001e-01
4.824005e-01
4.658302e-01
4.502593e-01
4.356574e-01
4.219951e-01
4.092444e-01
3.973788e-01
3.863741e-01
3.762082e-01
3.668618e-01
3.583178e-01
3.505623e-01
3.435839e-01
3.373740e-01
3.319272e-01
3.272409e-01
3.233155e-01
3.201546e-01
3.177649e-01
3.161564e-01
3.153424e-01
9.855860e-01
9.561414e-01
9.262862e-01
8.962294e-01
8.661740e-01
8.363109e-01
8.068148e-01
7.778404e-01
7.495215e-01
7.219694e-01
6.952742e-01
6.695054e-01
6.447142e-01
6.209356e-01
5.981905e-01
5.764881e-01
5.558283e-01
5.362032e-01
5.175997e-01
5.000001e-01
4.833841e-01
4.677298e-01
4.530144e-01
4.392152e-01
4.263101e-01
4.142779e-01
4.030992e-01
3.927561e-01
3.832329e-01
3.745159e-01
3.665940e-01
3.594583e-01
3.531027e-01
3.475235e-01
3.427199e-01
3.386940e-01
3.354506e-01
3.329976e-01
3.313461e-01
3.305102e-01
9.863466e-01
9.584475e-01
9.301349e-01
9.015911e-01
8.729945e-01
8.445150e-01
8.163098e-01
7.885210e-01
7.612737e-01
7.346749e-01
7.088137e-01
6.837621e-01
6.595761e-01
6.362971e-01
6.139539e-01
5.925644e-01
5.721373e-01
5.526740e-01
5.341699e-01
5.166160e-01
5.000001e-01
4.843074e-01
4.695222e-01
4.556280e-01
4.426082e-01
4.304469e-01
4.191292e-01
4.086414e-01
3.989713e-01
3.901085e-01
3.820449e-01
3.747741e-01
3.682923e-01
3.625978e-01
3.576916e-01
3.535774e-01
3.502613e-01
3.477525e-01
3.460629e-01
3.452076e-01
9.870293e-01
9.605185e-01
9.335946e-01
9.064178e-01
8.791459e-01
8.519306e-01
8.249139e-01
7.982264e-01
7.719844e-01
7.462903e-01
7.212311e-01
6.968796e-01
6.732945e-01
6.505220e-01
6.285968e-01
6.075434e-01
5.873781e-01
5.681096e-01
5.497409e-01
5.322704e-01
5.156927e-01
5.000001e-01
4.851828e-01
4.712301e-01
4.581309e-01
4.458740e-01
4.344488e-01
4.238456e-01
4.140559e-01
4.050725e-01
3.968900e-01
3.895047e-01
3.829150e-01
3.771213e-01
3.721264e-01
3.679354e-01
3.645559e-01
3.619982e-01
3.602753e-01
3.594030e-01
9.876438e-01
9.623834e-01
9.367125e-01
9.107730e-01
8.847053e-01
8.586454e-01
8.327222e-01
8.070554e-01
7.817536e-01
7.569137e-01
7.326204e-01
7.089457e-01
6.859501e-01
6.636829e-01
6.421831e-01
6.214805e-01
6.015972e-01
5.825482e-01
5.643428e-01
5.469857e-01
5.304779e-01
5.148174e-01
5.000001e-01
4.860206e-01
4.728726e-01
4.605496e-01
4.490450e-01
4.383530e-01
4.284684e-01
4.193872e-01
4.111067e-01
4.036259e-01
3.969452e-01
3.910671e-01
3.859963e-01
3.817392e-01
3.783050e-01
3.757051e-01
3.739532e-01
3.730662e-01
9.881980e-01
9.640659e-01
9.395276e-01
9.147094e-01
8.897371e-01
8.647332e-01
8.398149e-01
8.150924e-01
7.906670e-01
7.666302e-01
7.430637e-01
7.200384e-01
6.976153e-01
6.758456e-01
6.547715e-01
6.344269e-01
6.148384e-01
5.960262e-01
5.780051e-01
5.607850e-01
5.443722e-01
5.287701e-01
5.139796e-01
5.000001e-01
4.868298e-01
4.744663e-01
4.629070e-01
4.521496e-01
4.421921e-01
4.330337e-01
4.246742e-01
4.171150e-01
4.103588e-01
4.044101e-01
3.992751e-01
3.949621e-01
3.914812e-01
3.888450e-01
3.870684e-01
3.861686e-01
9.886984e-01
9.655857e-01
9.420721e-01
9.182708e-01
8.942950e-01
8.702557e-01
8.462601e-01
8.224095e-01
7.987984e-01
7.755135e-01
7.526331e-01
7.302264e-01
7.083543e-01
6.870691e-01
6.664152e-01
6.464296e-01
6.271424e-01
6.085781e-01
5.907558e-01
5.736901e-01
5.573920e-01
5.418693e-01
5.271276e-01
5.131704e-01
5.000001e-01
4.876181e-01
4.760255e-01
4.652231e-01
4.552123e-01
4.459948e-01
4.375732e-01
4.299512e-01
4.231336e-01
4.171266e-01
4.119383e-01
4.075783e-01
4.040581e-01
4.013913e-01
3.995936e-01
3.986832e-01
9.891506e-01
9.669592e-01
9.443730e-01
9.214939e-01
8.984244e-01
8.752654e-01
8.521154e-01
8.290679e-01
8.062113e-01
7.836274e-01
7.613912e-01
7.395701e-01
7.182242e-01
6.974064e-01
6.771624e-01
6.575314e-01
6.385467e-01
6.202357e-01
6.026214e-01
5.857223e-01
5.695532e-01
5.541262e-01
5.394506e-01
5.255339e-01
5.123821e-01
5.000001e-01
4.883923e-01
4.775627e-01
4.675154e-01
4.582549e-01
4.497862e-01
4.421151e-01
4.352485e-01
4.291945e-01
4.239626e-01
4.195638e-01
4.160110e-01
4.133186e-01
4.115034e-01
4.105839e-01
9.895590e-01
9.682002e-01
9.464528e-01
9.244094e-01
9.021631e-01
8.798064e-01
8.574297e-01
8.351200e-01
8.129600e-01
7.910270e-01
7.693926e-01
7.481223e-01
7.272752e-01
7.069042e-01
6.870558e-01
6.677710e-01
6.490849e-01
6.310280e-01
6.136261e-01
5.969010e-01
5.808710e-01
5.655514e-01
5.509552e-01
5.370932e-01
5.239747e-01
5.116079e-01
5.000001e-01
4.891582e-01
4.790889e-01
4.697992e-01
4.612963e-01
4.535882e-01
4.466837e-01
4.405925e-01
4.353256e-01
4.308955e-01
4.273160e-01
4.246027e-01
4.227729e-01
4.218460e-01
9.899275e-01
9.693201e-01
9.483305e-01
9.270431e-01
9.055433e-01
8.839159e-01
8.622447e-01
8.406106e-01
8.190911e-01
7.977595e-01
7.766844e-01
7.559290e-01
7.355513e-01
7.156038e-01
6.961335e-01
6.771824e-01
6.587876e-01
6.409813e-01
6.237920e-01
6.072441e-01
5.913588e-01
5.761546e-01
5.616472e-01
5.478506e-01
5.347771e-01
5.224375e-01
5.108420e-01
5.000001e-01
4.899209e-01
4.806137e-01
4.720878e-01
4.643532e-01
4.574203e-01
4.513005e-01
4.460063e-01
4.415513e-01
4.379504e-01
4.352202e-01
4.333787e-01
4.324457e-01
9.902592e-01
9.703284e-01
9.500218e-01
9.294168e-01
9.085918e-01
8.876255e-01
8.665955e-01
8.455775e-01
8.246444e-01
8.038657e-01
7.833072e-01
7.630299e-01
7.430906e-01
7.235411e-01
7.044287e-01
6.857960e-01
6.676813e-01
6.501187e-01
6.331384e-01
6.167673e-01
6.010290e-01
5.859443e-01
5.715318e-01
5.578081e-01
5.447879e-01
5.324848e-01
5.209113e-01
5.100793e-01
5.000001e-01
4.906851e-01
4.821455e-01
4.743931e-01
4.674400e-01
4.612991e-01
4.559841e-01
4.515099e-01
4.478923e-01
4.451488e-01
4.432979e-01
4.423600e-01
9.905569e-01
9.712333e-01
9.515400e-01
9.315485e-01
9.113313e-01
8.909616e-01
8.705117e-01
8.500527e-01
8.296535e-01
8.093801e-01
7.892956e-01
7.694590e-01
7.499257e-01
7.307470e-01
7.119700e-01
6.936377e-01
6.757894e-01
6.584603e-01
6.416824e-01
6.254843e-01
6.098917e-01
5.949277e-01
5.806130e-01
5.669665e-01
5.540054e-01
5.417453e-01
5.302010e-01
5.193865e-01
5.093151e-01
5.000001e-01
4.914545e-01
4.836917e-01
4.767253e-01
4.705695e-01
4.652393e-01
4.607507e-01
4.571204e-01
4.543665e-01
4.525084e-01
4.515667e-01
9.908226e-01
9.720413e-01
9.528961e-01
9.334534e-01
9.137807e-01
8.939463e-01
8.740182e-01
8.540632e-01
8.341467e-01
8.143318e-01
7.946788e-01
7.752451e-01
7.560847e-01
7.372480e-01
7.187819e-01
7.007298e-01
6.831314e-01
6.660230e-01
6.494379e-01
6.334062e-01
6.179553e-01
6.031102e-01
5.888935e-01
5.753260e-01
5.624270e-01
5.502140e-01
5.387039e-01
5.279124e-01
5.178547e-01
5.085457e-01
5.000001e-01
4.922327e-01
4.852586e-01
4.790931e-01
4.737524e-01
4.692534e-01
4.656137e-01
4.628521e-01
4.609885e-01
4.600440e-01
9.910583e-01
9.727580e-01
9.540992e-01
9.351439e-01
9.159555e-01
8.965980e-01
8.771354e-01
8.576313e-01
8.381477e-01
8.187449e-01
7.994812e-01
7.804122e-01
7.615904e-01
7.430658e-01
7.248846e-01
7.070905e-01
6.897235e-01
6.728207e-01
6.564164e-01
6.405419e-01
6.252261e-01
6.104955e-01
5.963744e-01
5.828853e-01
5.700490e-01
5.578851e-01
5.464120e-01
5.356470e-01
5.256071e-01
5.163085e-01
5.077675e-01
5.000001e-01
4.930226e-01
4.868516e-01
4.815042e-01
4.769981e-01
4.733518e-01
4.705846e-01
4.687170e-01
4.677704e-01
9.912653e-01
9.733877e-01
9.551566e-01
9.366302e-01
9.178683e-01
8.989314e-01
8.798803e-01
8.607752e-01
8.416755e-01
8.226393e-01
8.037227e-01
7.849797e-01
7.664619e-01
7.482181e-01
7.302945e-01
7.127344e-01
6.955784e-01
6.788640e-01
6.626262e-01
6.468976e-01
6.317080e-01
6.170852e-01
6.030551e-01
5.896414e-01
5.768667e-01
5.647518e-01
5.533166e-01
5.425800e-01
5.325602e-01
5.232750e-01
5.147417e-01
5.069776e-01
5.000001e-01
4.938268e-01
4.884756e-01
4.839651e-01
4.803144e-01
4.775434e-01
4.756729e-01
4.747248e-01
9.914450e-01
9.739342e-01
9.560743e-01
9.379205e-01
9.195294e-01
9.009586e-01
8.822660e-01
8.635093e-01
8.447455e-01
8.260306e-01
8.074189e-01
7.889630e-01
7.707135e-01
7.527185e-01
7.350238e-01
7.176725e-01
7.007053e-01
6.841603e-01
6.680730e-01
6.524768e-01
6.374025e-01
6.228789e-01
6.089331e-01
5.955901e-01
5.828736e-01
5.708058e-01
5.594078e-01
5.486997e-01
5.387011e-01
5.294307e-01
5.209071e-01
5.131486e-01
5.061734e-01
5.000001e-01
4.946474e-01
4.901345e-01
4.864810e-01
4.837076e-01
4.818352e-01
4.808861e-01
9.915982e-01
9.744000e-01
9.568567e-01
9.390208e-01
9.209464e-01
9.026886e-01
8.843028e-01
8.658447e-01
8.473691e-01
8.289304e-01
8.105814e-01
7.923734e-01
7.743561e-01
7.565770e-01
7.390813e-01
7.219121e-01
7.051102e-01
6.887139e-01
6.727594e-01
6.572804e-01
6.423086e-01
6.278739e-01
6.140040e-01
6.007251e-01
5.880619e-01
5.760377e-01
5.646746e-01
5.539940e-01
5.440161e-01
5.347609e-01
5.262478e-01
5.184960e-01
5.115246e-01
5.053528e-01
5.000001e-01
4.954862e-01
4.918314e-01
4.890565e-01
4.871830e-01
4.862332e-01
9.917255e-01
9.747873e-01
9.575073e-01
9.399358e-01
9.221250e-01
9.041279e-01
8.859980e-01
8.677890e-01
8.495544e-01
8.313469e-01
8.132181e-01
7.952184e-01
7.773965e-01
7.597993e-01
7.424719e-01
7.254570e-01
7.087955e-01
6.925259e-01
6.766848e-01
6.613063e-01
6.464229e-01
6.320649e-01
6.182610e-01
6.050382e-01
5.924219e-01
5.804364e-01
5.691048e-01
5.584490e-01
5.484903e-01
5.392496e-01
5.307468e-01
5.230021e-01
5.160351e-01
5.098658e-01
5.045140e-01
5.000001e-01
4.963448e-01
4.935691e-01
4.916950e-01
4.907448e-01
9.918274e-01
9.750974e-01
9.580280e-01
9.406683e-01
9.230687e-01
9.052805e-01
8.873559e-01
8.693471e-01
8.513062e-01
8.332847e-01
8.153334e-01
7.975017e-01
7.798377e-01
7.623879e-01
7.451969e-01
7.283074e-01
7.117602e-01
6.955941e-01
6.798457e-01
6.645497e-01
6.497389e-01
6.354444e-01
6.216952e-01
6.085191e-01
5.959421e-01
5.839893e-01
5.726842e-01
5.620498e-01
5.521079e-01
5.428799e-01
5.343865e-01
5.266484e-01
5.196859e-01
5.135192e-01
5.081688e-01
5.036555e-01
5.000001e-01
4.972242e-01
4.953498e-01
4.943994e-01
9.919043e-01
9.753309e-01
9.584201e-01
9.412197e-01
9.237790e-01
9.061483e-01
8.883784e-01
8.705205e-01
8.526259e-01
8.347451e-01
8.169280e-01
7.992235e-01
7.816793e-01
7.643413e-01
7.472540e-01
7.304599e-01
7.139999e-01
6.979128e-01
6.822354e-01
6.670027e-01
6.522478e-01
6.380021e-01
6.242952e-01
6.111553e-01
5.986089e-01
5.866816e-01
5.753975e-01
5.647800e-01
5.548515e-01
5.456337e-01
5.371481e-01
5.294156e-01
5.224569e-01
5.162927e-01
5.109438e-01
5.064311e-01
5.027760e-01
5.000001e-01
4.981256e-01
4.971752e-01
9.919566e-01
9.754880e-01
9.586833e-01
9.415897e-01
9.242557e-01
9.067306e-01
8.890647e-01
8.713083e-01
8.535120e-01
8.357258e-01
8.179991e-01
8.003804e-01
7.829169e-01