# vtk DataFile Version 3.0
QUICK_DC(JC)
ASCII
DATASET STRUCTURED_GRID
DIMENSIONS 81 81 1
POINTS 6561 double
0.000000e+00 0.000000e+00 0.0
1.250000e-02 0.000000e+00 0.0
2.500000e-02 0.000000e+00 0.0
3.750000e-02 0.000000e+00 0.0
5.000000e-02 0.000000e+00 0.0
6.250000e-02 0.000000e+00 0.0
7.500000e-02 0.000000e+00 0.0
8.750000e-02 0.000000e+00 0.0
1.000000e-01 0.000000e+00 0.0
1.125000e-01 0.000000e+00 0.0
1.250000e-01 0.000000e+00 0.0
1.375000e-01 0.000000e+00 0.0
1.500000e-01 0.000000e+00 0.0
1.625000e-01 0.000000e+00 0.0
1.750000e-01 0.000000e+00 0.0
1.875000e-01 0.000000e+00 0.0
2.000000e-01 0.000000e+00 0.0
2.125000e-01 0.000000e+00 0.0
2.250000e-01 0.000000e+00 0.0
2.375000e-01 0.000000e+00 0.0
2.500000e-01 0.000000e+00 0.0
2.625000e-01 0.000000e+00 0.0
2.750000e-01 0.000000e+00 0.0
2.875000e-01 0.000000e+00 0.0
3.000000e-01 0.000000e+00 0.0
3.125000e-01 0.000000e+00 0.0
3.250000e-01 0.000000e+00 0.0
3.375000e-01 0.000000e+00 0.0
3.500000e-01 0.000000e+00 0.0
3.625000e-01 0.000000e+00 0.0
3.750000e-01 0.000000e+00 0.0
3.875000e-01 0.000000e+00 0.0
4.000000e-01 0.000000e+00 0.0
4.125000e-01 0.000000e+00 0.0
4.250000e-01 0.000000e+00 0.0
4.375000e-01 0.000000e+00 0.0
4.500000e-01 0.000000e+00 0.0
4.625000e-01 0.000000e+00 0.0
4.750000e-01 0.000000e+00 0.0
4.875000e-01 0.000000e+00 0.0
5.000000e-01 0.000000e+00 0.0
5.125000e-01 0.000000e+00 0.0
5.250000e-01 0.000000e+00 0.0
5.375000e-01 0.000000e+00 0.0
5.500000e-01 0.000000e+00 0.0
5.625000e-01 0.000000e+00 0.0
5.750000e-01 0.000000e+00 0.0
5.875000e-01 0.000000e+00 0.0
6.000000e-01 0.000000e+00 0.0
6.125000e-01 0.000000e+00 0.0
6.250000e-01 0.000000e+00 0.0
6.375000e-01 0.000000e+00 0.0
6.500000e-01 0.000000e+00 0.0
6.625000e-01 0.000000e+00 0.0
6.750000e-01 0.000000e+00 0.0
6.875000e-01 0.000000e+00 0.0
7.000000e-01 0.000000e+00 0.0
7.125000e-01 0.000000e+00 0.0
7.250000e-01 0.000000e+00 0.0
7.375000e-01 0.000000e+00 0.0
7.500000e-01 0.000000e+00 0.0
7.625000e-01 0.000000e+00 0.0
7.750000e-01 0.000000e+00 0.0
7.875000e-01 0.000000e+00 0.0
8.000000e-01 0.000000e+00 0.0
8.125000e-01 0.000000e+00 0.0
8.250000e-01 0.000000e+00 0.0
8.375000e-01 0.000000e+00 0.0
8.500000e-01 0.000000e+00 0.0
8.625000e-01 0.000000e+00 0.0
8.750000e-01 0.000000e+00 0.0
8.875000e-01 0.000000e+00 0.0
9.000000e-01 0.000000e+00 0.0
9.125000e-01 0.000000e+00 0.0
9.250000e-01 0.000000e+00 0.0
9.375000e-01 0.000000e+00 0.0
9.500000e-01 0.000000e+00 0.0
9.625000e-01 0.000000e+00 0.0
9.750000e-01 0.000000e+00 0.0
9.875000e-01 0.000000e+00 0.0
1.000000e+00 0.000000e+00 0.0
0.000000e+00 1.250000e-02 0.0
1.250000e-02 1.250000e-02 0.0
2.500000e-02 1.250000e-02 0.0
3.750000e-02 1.250000e-02 0.0
5.000000e-02 1.250000e-02 0.0
6.250000e-02 1.250000e-02 0.0
7.500000e-02 1.250000e-02 0.0
8.750000e-02 1.250000e-02 0.0
1.000000e-01 1.250000e-02 0.0
1.125000e-01 1.250000e-02 0.0
1.250000e-01 1.250000e-02 0.0
1.375000e-01 1.250000e-02 0.0
1.500000e-01 1.250000e-02 0.0
1.625000e-01 1.250000e-02 0.0
1.750000e-01 1.250000e-02 0.0
1.875000e-01 1.250000e-02 0.0
2.000000e-01 1.250000e-02 0.0
2.125000e-01 1.250000e-02 0.0
2.250000e-01 1.250000e-02 0.0
2.375000e-01 1.250000e-02 0.0
2.500000e-01 1.250000e-02 0.0
2.625000e-01 1.250000e-02 0.0
2.750000e-01 1.250000e-02 0.0
2.875000e-01 1.250000e-02 0.0
3.000000e-01 1.250000e-02 0.0
3.125000e-01 1.250000e-02 0.0
3.250000e-01 1.250000e-02 0.0
3.375000e-01 1.250000e-02 0.0
3.500000e-01 1.250000e-02 0.0
3.625000e-01 1.250000e-02 0.0
3.750000e-01 1.250000e-02 0.0
3.875000e-01 1.250000e-02 0.0
4.000000e-01 1.250000e-02 0.0
4.125000e-01 1.250000e-02 0.0
4.250000e-01 1.250000e-02 0.0
4.375000e-01 1.250000e-02 0.0
4.500000e-01 1.250000e-02 0.0
4.625000e-01 1.250000e-02 0.0
4.750000e-01 1.250000e-02 0.0
4.875000e-01 1.250000e-02 0.0
5.000000e-01 1.250000e-02 0.0
5.125000e-01 1.250000e-02 0.0
5.250000e-01 1.250000e-02 0.0
5.375000e-01 1.250000e-02 0.0
5.500000e-01 1.250000e-02 0.0
5.625000e-01 1.250000e-02 0.0
5.750000e-01 1.250000e-02 0.0
5.875000e-01 1.250000e-02 0.0
6.000000e-01 1.250000e-02 0.0
6.125000e-01 1.250000e-02 0.0
6.250000e-01 1.250000e-02 0.0
6.375000e-01 1.250000e-02 0.0
6.500000e-01 1.250000e-02 0.0
6.625000e-01 1.250000e-02 0.0
6.750000e-01 1.250000e-02 0.0
6.875000e-01 1.250000e-02 0.0
7.000000e-01 1.250000e-02 0.0
7.125000e-01 1.250000e-02 0.0
7.250000e-01 1.250000e-02 0.0
7.375000e-01 1.250000e-02 0.0
7.500000e-01 1.250000e-02 0.0
7.625000e-01 1.250000e-02 0.0
7.750000e-01 1.250000e-02 0.0
7.875000e-01 1.250000e-02 0.0
8.000000e-01 1.250000e-02 0.0
8.125000e-01 1.250000e-02 0.0
8.250000e-01 1.250000e-02 0.0
8.375000e-01 1.250000e-02 0.0
8.500000e-01 1.250000e-02 0.0
8.625000e-01 1.250000e-02 0.0
8.750000e-01 1.250000e-02 0.0
8.875000e-01 1.250000e-02 0.0
9.000000e-01 1.250000e-02 0.0
9.125000e-01 1.250000e-02 0.0
9.250000e-01 1.250000e-02 0.0
9.375000e-01 1.250000e-02 0.0
9.500000e-01 1.250000e-02 0.0
9.625000e-01 1.250000e-02 0.0
9.750000e-01 1.250000e-02 0.0
9.875000e-01 1.250000e-02 0.0
1.000000e+00 1.250000e-02 0.0
0.000000e+00 2.500000e-02 0.0
1.250000e-02 2.500000e-02 0.0
2.500000e-02 2.500000e-02 0.0
3.750000e-02 2.500000e-02 0.0
5.000000e-02 2.500000e-02 0.0
6.250000e-02 2.500000e-02 0.0
7.500000e-02 2.500000e-02 0.0
8.750000e-02 2.500000e-02 0.0
1.000000e-01 2.500000e-02 0.0
1.125000e-01 2.500000e-02 0.0
1.250000e-01 2.500000e-02 0.0
1.375000e-01 2.500000e-02 0.0
1.500000e-01 2.500000e-02 0.0
1.625000e-01 2.500000e-02 0.0
1.750000e-01 2.500000e-02 0.0
1.875000e-01 2.500000e-02 0.0
2.000000e-01 2.500000e-02 0.0
2.125000e-01 2.500000e-02 0.0
2.250000e-01 2.500000e-02 0.0
2.375000e-01 2.500000e-02 0.0
2.500000e-01 2.500000e-02 0.0
2.625000e-01 2.500000e-02 0.0
2.750000e-01 2.500000e-02 0.0
2.875000e-01 2.500000e-02 0.0
3.000000e-01 2.500000e-02 0.0
3.125000e-01 2.500000e-02 0.0
3.250000e-01 2.500000e-02 0.0
3.375000e-01 2.500000e-02 0.0
3.500000e-01 2.500000e-02 0.0
3.625000e-01 2.500000e-02 0.0
3.750000e-01 2.500000e-02 0.0
3.875000e-01 2.500000e-02 0.0
4.000000e-01 2.500000e-02 0.0
4.125000e-01 2.500000e-02 0.0
4.250000e-01 2.500000e-02 0.0
4.375000e-01 2.500000e-02 0.0
4.500000e-01 2.500000e-02 0.0
4.625000e-01 2.500000e-02 0.0
4.750000e-01 2.500000e-02 0.0
4.875000e-01 2.500000e-02 0.0
5.000000e-01 2.500000e-02 0.0
5.125000e-01 2.500000e-02 0.0
5.250000e-01 2.500000e-02 0.0
5.375000e-01 2.500000e-02 0.0
5.500000e-01 2.500000e-02 0.0
5.625000e-01 2.500000e-02 0.0
5.750000e-01 2.500000e-02 0.0
5.875000e-01 2.500000e-02 0.0
6.000000e-01 2.500000e-02 0.0
6.125000e-01 2.500000e-02 0.0
6.250000e-01 2.500000e-02 0.0
6.375000e-01 2.500000e-02 0.0
6.500000e-01 2.500000e-02 0.0
6.625000e-01 2.500000e-02 0.0
6.750000e-01 2.500000e-02 0.0
6.875000e-01 2.500000e-02 0.0
7.000000e-01 2.500000e-02 0.0
7.125000e-01 2.500000e-02 0.0
7.250000e-01 2.500000e-02 0.0
7.375000e-01 2.500000e-02 0.0
7.500000e-01 2.500000e-02 0.0
7.625000e-01 2.500000e-02 0.0
7.750000e-01 2.500000e-02 0.0
7.875000e-01 2.500000e-02 0.0
8.000000e-01 2.500000e-02 0.0
8.125000e-01 2.500000e-02 0.0
8.250000e-01 2.500000e-02 0.0
8.375000e-01 2.500000e-02 0.0
8.500000e-01 2.500000e-02 0.0
8.625000e-01 2.500000e-02 0.0
8.750000e-01 2.500000e-02 0.0
8.875000e-01 2.500000e-02 0.0
9.000000e-01 2.500000e-02 0.0
9.125000e-01 2.500000e-02 0.0
9.250000e-01 2.500000e-02 0.0
9.375000e-01 2.500000e-02 0.0
9.500000e-01 2.500000e-02 0.0
9.625000e-01 2.500000e-02 0.0
9.750000e-01 2.500000e-02 0.0
9.875000e-01 2.500000e-02 0.0
1.000000e+00 2.500000e-02 0.0
0.000000e+00 3.750000e-02 0.0
1.250000e-02 3.750000e-02 0.0
2.500000e-02 3.750000e-02 0.0
3.750000e-02 3.750000e-02 0.0
5.000000e-02 3.750000e-02 0.0
6.250000e-02 3.750000e-02 0.0
7.500000e-02 3.750000e-02 0.0
8.750000e-02 3.750000e-02 0.0
1.000000e-01 3.750000e-02 0.0
1.125000e-01 3.750000e-02 0.0
1.250000e-01 3.750000e-02 0.0
1.375000e-01 3.750000e-02 0.0
1.500000e-01 3.750000e-02 0.0
1.625000e-01 3.750000e-02 0.0
1.750000e-01 3.750000e-02 0.0
1.875000e-01 3.750000e-02 0.0
2.000000e-01 3.750000e-02 0.0
2.125000e-01 3.750000e-02 0.0
2.250000e-01 3.750000e-02 0.0
2.375000e-01 3.750000e-02 0.0
2.500000e-01 3.750000e-02 0.0
2.625000e-01 3.750000e-02 0.0
2.750000e-01 3.750000e-02 0.0
2.875000e-01 3.750000e-02 0.0
3.000000e-01 3.750000e-02 0.0
3.125000e-01 3.750000e-02 0.0
3.250000e-01 3.750000e-02 0.0
3.375000e-01 3.750000e-02 0.0
3.500000e-01 3.750000e-02 0.0
3.625000e-01 3.750000e-02 0.0
3.750000e-01 3.750000e-02 0.0
3.875000e-01 3.750000e-02 0.0
4.000000e-01 3.750000e-02 0.0
4.125000e-01 3.750000e-02 0.0
4.250000e-01 3.750000e-02 0.0
4.375000e-01 3.750000e-02 0.0
4.500000e-01 3.750000e-02 0.0
4.625000e-01 3.750000e-02 0.0
4.750000e-01 3.750000e-02 0.0
4.875000e-01 3.750000e-02 0.0
5.000000e-01 3.750000e-02 0.0
5.125000e-01 3.750000e-02 0.0
5.250000e-01 3.750000e-02 0.0
5.375000e-01 3.750000e-02 0.0
5.500000e-01 3.750000e-02 0.0
5.625000e-01 3.750000e-02 0.0
5.750000e-01 3.750000e-02 0.0
5.875000e-01 3.750000e-02 0.0
6.000000e-01 3.750000e-02 0.0
6.125000e-01 3.750000e-02 0.0
6.250000e-01 3.750000e-02 0.0
6.375000e-01 3.750000e-02 0.0
6.500000e-01 3.750000e-02 0.0
6.625000e-01 3.750000e-02 0.0
6.750000e-01 3.750000e-02 0.0
6.875000e-01 3.750000e-02 0.0
7.000000e-01 3.750000e-02 0.0
7.125000e-01 3.750000e-02 0.0
7.250000e-01 3.750000e-02 0.0
7.375000e-01 3.750000e-02 0.0
7.500000e-01 3.750000e-02 0.0
7.625000e-01 3.750000e-02 0.0
7.750000e-01 3.750000e-02 0.0
7.875000e-01 3.750000e-02 0.0
8.000000e-01 3.750000e-02 0.0
8.125000e-01 3.750000e-02 0.0
8.250000e-01 3.750000e-02 0.0
8.375000e-01 3.750000e-02 0.0
8.500000e-01 3.750000e-02 0.0
8.625000e-01 3.750000e-02 0.0
8.750000e-01 3.750000e-02 0.0
8.875000e-01 3.750000e-02 0.0
9.000000e-01 3.750000e-02 0.0
9.125000e-01 3.750000e-02 0.0
9.250000e-01 3.750000e-02 0.0
9.375000e-01 3.750000e-02 0.0
9.500000e-01 3.750000e-02 0.0
9.625000e-01 3.750000e-02 0.0
9.750000e-01 3.750000e-02 0.0
9.875000e-01 3.750000e-02 0.0
1.000000e+00 3.750000e-02 0.0
0.000000e+00 5.000000e-02 0.0
1.250000e-02 5.000000e-02 0.0
2.500000e-02 5.000000e-02 0.0
3.750000e-02 5.000000e-02 0.0
5.000000e-02 5.000000e-02 0.0
[...]
CELL_DATA 6400
SCALARS Temperature double 1
LOOKUP_TABLE default
5.000000e-01
6.188400e-02
-3.961193e-02
-2.603570e-02
-2.989227e-03
4.671550e-03
2.944557e-03
1.600771e-04
-7.648493e-04
-4.409175e-04
5.089743e-06
1.424289e-04
7.509954e-05
-6.114178e-06
-2.856380e-05
-1.375404e-05
2.163283e-06
6.006569e-06
2.632139e-06
-6.371123e-07
-1.304615e-06
-5.173894e-07
1.756799e-07
2.899466e-07
1.032314e-07
-4.698823e-08
-6.552793e-08
-2.071042e-08
1.236514e-08
1.499359e-08
4.140937e-09
-3.222966e-09
-3.462221e-09
-8.169918e-10
8.349459e-10
8.048223e-10
1.569314e-10
-2.153924e-10
-1.879678e-10
-2.871315e-11
5.539121e-11
4.403443e-11
4.788776e-12
-1.420892e-11
-1.033259e-11
-6.444492e-13
3.637024e-12
2.425345e-12
3.127396e-14
-9.291354e-13
-5.687914e-13
2.307282e-14
2.369173e-13
1.331113e-13
-1.319573e-14
-6.029835e-14
-3.104549e-14
5.100139e-15
1.531754e-14
7.205814e-15
-1.714814e-15
-3.883422e-15
-1.661673e-15
5.366471e-16
9.825078e-16
3.799290e-16
-1.607609e-16
-2.480247e-16
-8.590531e-17
4.676283e-17
6.246279e-17
1.914118e-17
-1.331763e-17
-1.569037e-17
-4.181477e-18
3.730396e-18
3.935582e-18
8.890889e-19
-1.096535e-18
-6.822354e-19
9.381160e-01
5.000000e-01
1.358056e-01
-2.328081e-02
-4.225355e-02
-1.681277e-02
1.921408e-03
5.544723e-03
2.382422e-03
-3.733699e-04
-9.332550e-04
-3.910160e-04
8.641947e-05
1.767009e-04
6.966752e-05
-2.092724e-05
-3.578912e-05
-1.302178e-05
5.157544e-06
7.567817e-06
2.502149e-06
-1.282780e-06
-1.647922e-06
-4.873405e-07
3.208657e-07
3.663811e-07
9.508795e-08
-8.056624e-08
-8.269272e-08
-1.836425e-08
2.028319e-08
1.886984e-08
3.457198e-09
-5.115842e-09
-4.340234e-09
-6.191425e-10
1.291894e-09
1.003846e-09
1.003815e-10
-3.264755e-10
-2.330142e-10
-1.275339e-11
8.252980e-11
5.419158e-11
3.360797e-13
-2.086198e-11
-1.260834e-11
5.854308e-13
5.271700e-12
2.930448e-12
-3.055054e-13
-1.331299e-12
-6.794055e-13
1.146069e-13
3.359057e-13
1.568804e-13
-3.791262e-14
-8.465829e-14
-3.601566e-14
1.173629e-14
2.130726e-14
8.203293e-15
-3.487447e-15
-5.354113e-15
-1.848900e-15
1.007966e-15
1.342898e-15
4.109054e-16
-2.855492e-16
-3.361110e-16
-8.960283e-17
7.967265e-17
8.392462e-17
1.902801e-17
-2.196381e-17
-2.089698e-17
-3.909652e-18
6.072474e-18
5.100055e-18
2.395122e-19
1.039612e+00
8.641944e-01
5.000000e-01
1.696004e-01
-6.241548e-03
-4.666979e-02
-2.668076e-02
-2.957498e-03
5.866147e-03
4.214973e-03
6.057691e-04
-9.777158e-04
-7.505628e-04
-1.073911e-04
1.889178e-04
1.446239e-04
1.831632e-05
-3.962870e-05
-2.931842e-05
-2.961942e-06
8.738573e-06
6.149543e-06
4.244738e-07
-1.990555e-06
-1.320655e-06
-4.202104e-08
4.635838e-07
2.883435e-07
-2.959946e-09
-1.096663e-07
-6.367968e-08
3.657279e-09
2.623748e-08
1.417019e-08
-1.563208e-09
-6.329361e-09
-3.167087e-09
5.383414e-10
1.536144e-09
7.090090e-10
-1.687438e-10
-3.744735e-10
-1.585686e-10
5.021075e-11
9.157358e-11
3.533431e-11
-1.445996e-11
-2.244050e-11
-7.821721e-12
4.072397e-12
5.506029e-12
1.713881e-12
-1.128543e-12
-1.351674e-12
-3.699990e-13
3.089337e-13
3.317824e-13
7.817713e-14
-8.375667e-14
-8.138174e-14
-1.600094e-14
2.252992e-14
1.993655e-14
3.116421e-15
-6.020599e-15
-4.875101e-15
-5.571849e-16
1.599780e-15
1.189280e-15
8.327812e-17
-4.229760e-16
-2.892643e-16
-6.621000e-18
1.113336e-16
7.009813e-17
-1.940101e-18
-2.919668e-17
-1.703105e-17
2.108578e-18
5.717979e-18
1.026036e+00
1.023281e+00
8.303996e-01
5.000000e-01
1.906258e-01
8.136597e-03
-4.699484e-02
-3.376541e-02
-8.140634e-03
4.913557e-03
5.466453e-03
1.754628e-03
-6.981282e-04
-9.852052e-04
-3.507745e-04
1.247948e-04
1.932507e-04
7.072003e-05
-2.581663e-05
-4.014425e-05
-1.449196e-05
5.833045e-06
8.673992e-06
3.008600e-06
-1.388508e-06
-1.927004e-06
-6.296321e-07
3.408902e-07
4.367896e-07
1.321444e-07
-8.525188e-08
-1.004789e-07
-2.766430e-08
2.155984e-08
2.336827e-08
5.742042e-09
-5.489493e-09
-5.478823e-09
-1.172605e-09
1.403409e-09
1.292108e-09
2.330108e-10
-3.596239e-10
-3.059817e-10
-4.423919e-11
9.226300e-11
7.265110e-11
7.742439e-12
-2.367994e-11
-1.727398e-11
-1.139726e-12
6.076666e-12
4.108239e-12
9.183970e-14
-1.558483e-12
-9.762736e-13
2.432010e-14
3.993479e-13
2.315730e-13
-1.774365e-14
-1.022115e-13
-5.476948e-14
7.330359e-15
2.612463e-14
1.290090e-14
-2.554182e-15
-6.666778e-15
-3.022468e-15
8.190579e-16
1.698304e-15
7.032155e-16
-2.500301e-16
-4.317874e-16
-1.621651e-16
7.387382e-17
1.095252e-16
3.709736e-17
-2.165258e-17
-2.767646e-17
-4.567540e-18
1.002989e+00
1.042254e+00
1.006242e+00
8.093742e-01
5.000000e-01
2.055572e-01
2.030332e-02
-4.544438e-02
-3.885983e-02
-1.307392e-02
3.215500e-03
6.155083e-03
2.873336e-03
-2.021309e-04
-1.071764e-03
-5.884831e-04
5.557976e-06
2.055703e-04
1.222457e-04
1.534748e-06
-4.235756e-05
-2.599681e-05
-3.758030e-07
9.184100e-06
5.644295e-06
2.075849e-08
-2.065135e-06
-1.245725e-06
2.021929e-08
4.767426e-07
2.783773e-07
-1.210285e-08
-1.121964e-07
-6.277627e-08
4.848271e-09
2.678267e-08
1.424605e-08
-1.671036e-09
-6.461422e-09
-3.245568e-09
5.321923e-10
1.571200e-09
7.407196e-10
-1.614942e-10
-3.843082e-10
-1.690083e-10
4.744464e-11
9.440383e-11
3.847485e-11
-1.362080e-11
-2.326068e-11
-8.720175e-12
3.843664e-12
5.743045e-12
1.962835e-12
-1.070292e-12
-1.419673e-12
-4.374682e-13
2.948750e-13
3.511179e-13
9.616254e-14
-8.053478e-14
-8.682947e-14
-2.073337e-14
2.183461e-14
2.145788e-14
4.348288e-15
-5.882686e-15
-5.296435e-15
-8.748598e-16
1.576213e-15
1.305080e-15
1.645103e-16
-4.202685e-16
-3.208467e-16
-2.728248e-17
1.115697e-16
7.927082e-17
2.521700e-19
-2.269325e-17
9.953285e-01
1.016813e+00
1.046670e+00
9.918634e-01
7.944428e-01
5.000000e-01
2.170440e-01
3.080414e-02
-4.296118e-02
-4.253255e-02
-1.758554e-02
1.097307e-03
6.366708e-03
3.865779e-03
4.211547e-04
-1.019016e-03
-7.877482e-04
-1.460353e-04
1.813191e-04
1.633223e-04
3.681739e-05
-3.541581e-05
-3.487479e-05
-8.540261e-06
7.445837e-06
7.649956e-06
1.919348e-06
-1.655038e-06
-1.715337e-06
-4.245542e-07
3.833126e-07
3.913662e-07
9.284171e-08
-9.146996e-08
-9.051160e-08
-2.006567e-08
2.230258e-08
2.115343e-08
4.272569e-09
-5.522404e-09
-4.983619e-09
-8.909776e-10
1.382524e-09
1.181219e-09
1.801518e-10
-3.488134e-10
-2.812048e-10
-3.469710e-11
8.848585e-11
6.714582e-11
6.140173e-12
-2.253037e-11
-1.606188e-11
-9.088388e-13
5.750714e-12
3.844922e-12
7.135017e-14
-1.469993e-12
-9.201511e-13
2.118914e-14
3.760338e-13
2.199346e-13
-1.511720e-14
-9.620650e-14
-5.245311e-14
6.259668e-15
2.460624e-14
1.246957e-14
-2.193229e-15
-6.289007e-15
-2.951556e-15
7.077920e-16
1.605735e-15
6.947225e-16
-2.174796e-16
-4.093529e-16
-1.628289e-16
6.578370e-17
1.046832e-16
2.203265e-17
9.970554e-01
9.980786e-01
1.026681e+00
1.046995e+00
9.796967e-01
7.829560e-01
5.000000e-01
2.263410e-01
4.002419e-02
-4.000369e-02
-4.516779e-02
-2.163982e-02
-1.239845e-03
6.193929e-03
4.690774e-03
1.105166e-03
-8.480037e-04
-9.315664e-04
-3.102832e-04
1.252560e-04
1.884234e-04
7.456971e-05
-2.038755e-05
-3.950791e-05
-1.721121e-05
3.691847e-06
8.575532e-06
3.933606e-06
-7.447201e-07
-1.916628e-06
-8.988792e-07
1.655909e-07
4.386339e-07
2.059633e-07
-3.976461e-08
-1.022962e-07
-4.733758e-08
1.007556e-08
2.421533e-08
1.090588e-08
-2.640480e-09
-5.799757e-09
-2.515803e-09
7.054608e-10
1.401875e-09
5.803430e-10
-1.903535e-10
-3.412709e-10
-1.336754e-10
5.157672e-11
8.353349e-11
3.069534e-11
-1.398579e-11
-2.053086e-11
-7.013624e-12
3.788147e-12
5.061209e-12
1.591118e-12
-1.023800e-12
-1.250247e-12
-3.573973e-13
2.759384e-13
3.092324e-13
7.919583e-14
-7.414894e-14
-7.652778e-14
-1.722371e-14
1.986328e-14
1.893774e-14
3.648120e-15
-5.304524e-15
-4.683434e-15
-7.430519e-16
1.412247e-15
1.156824e-15
1.423435e-16
-3.748259e-16
-2.875521e-16
-1.381440e-17
7.725665e-17
9.998399e-01
9.944553e-01
1.002957e+00
1.033765e+00
1.045444e+00
9.691959e-01
7.736590e-01
5.000000e-01
2.341286e-01
4.823364e-02
-3.681256e-02
-4.702878e-02
-2.525342e-02
-3.670848e-03
5.719008e-03
5.336632e-03
1.802780e-03
-5.829164e-04
-1.013348e-03
-4.718356e-04
4.430059e-05
1.951796e-04
1.102224e-04
8.110968e-07
-3.916651e-05
-2.510652e-05
-1.566490e-06
8.209952e-06
5.716798e-06
5.337262e-07
-1.790121e-06
-1.311107e-06
-1.431995e-07
4.036155e-07
3.033863e-07
3.474480e-08
-9.354603e-08
-7.080728e-08
-7.924736e-09
2.216887e-08
1.665021e-08
1.716264e-09
-5.347477e-09
-3.939757e-09
-3.509701e-10
1.307994e-09
9.368640e-10
6.618578e-11
-3.234314e-10
-2.236263e-10
-1.077808e-11
8.065019e-11
5.352168e-11
1.175214e-12
-2.024026e-11
-1.283081e-11
1.030249e-13
5.104179e-12
3.078088e-12
-1.289372e-13
-1.291764e-12
-7.382650e-13
5.899596e-14
3.277497e-13
1.768706e-13
-2.167984e-14
-8.329933e-14
-4.228738e-14
7.213141e-15
2.119254e-14
1.007987e-14
-2.266831e-15
-5.394111e-15
-2.392868e-15
6.864281e-16
1.372585e-15
5.666107e-16
-2.060502e-16
-3.514646e-16
-7.882255e-17
1.000765e+00
9.976176e-01
9.941339e-01
1.008141e+00
1.038860e+00
1.042961e+00
9.599758e-01
7.658714e-01
5.000000e-01
2.408147e-01
5.562689e-02
-3.352143e-02
-4.830049e-02
-2.846184e-02
-6.117449e-03
5.010299e-03
5.807074e-03
2.481824e-03
-2.469616e-04
-1.032980e-03
-6.195674e-04
-5.413494e-05
1.834501e-04
1.403320e-04
2.595018e-05
-3.381498e-05
-3.123362e-05
-7.692983e-06
6.545476e-06
6.994613e-06
2.005970e-06
-1.333516e-06
-1.587230e-06
-4.966468e-07
2.853707e-07
3.654174e-07
1.199541e-07
-6.385760e-08
-8.527630e-08
-2.858892e-08
1.485228e-08
2.014008e-08
6.758259e-09
-3.566700e-09
-4.805345e-09
-1.588137e-09
8.786354e-10
1.156347e-09
3.712329e-10
-2.207399e-10
-2.802142e-10
-8.629695e-11
5.627818e-11
6.828812e-11
1.993108e-11
-1.450299e-11
-1.671638e-11
-4.566553e-12
3.766011e-12
4.106155e-12
1.035648e-12
-9.830550e-13
-1.011194e-12
-2.317679e-13
2.574924e-13
2.494565e-13
5.095282e-14
-6.758566e-14
-6.160400e-14
-1.093005e-14
1.775859e-14
1.521940e-14
2.262868e-15
-4.667669e-15
-3.759027e-15
-4.439157e-16
1.226399e-15
9.352495e-16
4.497228e-17
-2.511318e-16
1.000441e+00
1.000373e+00
9.957850e-01
9.950864e-01
1.013074e+00
1.042533e+00
1.040004e+00
9.517664e-01
7.591853e-01
5.000000e-01
2.466622e-01
6.234765e-02
-3.020734e-02
-4.911614e-02
-3.130549e-02
-8.530736e-03
4.123009e-03
6.113439e-03
3.121094e-03
1.393130e-04
-9.941347e-04
-7.459502e-04
-1.630447e-04
1.545425e-04
1.625547e-04
5.282453e-05
-2.390500e-05
-3.492098e-05
-1.403729e-05
3.726114e-06
7.583199e-06
3.488893e-06
-5.894241e-07
-1.677994e-06
-8.447723e-07
9.579295e-08
3.789717e-07
2.025040e-07
-1.640660e-08
-8.727457e-08
-4.839626e-08
3.084301e-09
2.045410e-08
1.156679e-08
-6.624198e-10
-4.867397e-09
-2.768035e-09
1.637848e-10
1.173425e-09
6.634710e-10
-4.507051e-11
-2.859855e-10
-1.592542e-10
1.315947e-11
7.033105e-11
3.826440e-11
-3.931264e-12
-1.742410e-11
-9.197915e-12
1.177456e-12
4.342473e-12
2.210512e-12
-3.502706e-13
-1.087374e-12
-5.307571e-13
1.031275e-13
2.732908e-13
1.272221e-13
-3.002769e-14
-6.887947e-14
-3.041767e-14
8.650179e-15
1.739580e-14
7.247196e-15
-2.467472e-15
-4.398499e-15
-1.723819e-15
7.091603e-16
1.119160e-15
2.382099e-16
9.999949e-01
1.000933e+00
9.993942e-01
9.945335e-01
9.967845e-01
1.017586e+00
1.045168e+00
1.036813e+00
9.443731e-01
7.533378e-01
5.000000e-01
2.518505e-01
6.850493e-02
-2.691573e-02
-4.957386e-02
-3.382386e-02
-1.088048e-02
3.101167e-03
6.270392e-03
3.707249e-03
5.585014e-04
-9.025130e-04
-8.463173e-04
-2.762578e-04
1.106188e-04
1.755034e-04
7.944739e-05
-1.019401e-05
-3.579832e-05
-2.000600e-05
-4.668647e-09
7.389226e-06
4.814073e-06
3.691024e-07
-1.560355e-06
-1.141306e-06
-1.442676e-07
3.383360e-07
2.699375e-07
4.306553e-08
-7.535823e-08
-6.403454e-08
-1.159458e-08
1.721789e-08
1.526794e-08
2.959973e-09
-4.026301e-09
-3.661205e-09
-7.314667e-10
9.610059e-10
8.828461e-10
1.766630e-10
-2.334516e-10
-2.139680e-10
-4.188427e-11
5.755831e-11
5.208746e-11
9.761813e-12
-1.436609e-11
-1.272718e-11
-2.235019e-12
3.621487e-12
3.119177e-12
5.013367e-13
-9.202032e-13
-7.662318e-13
-1.095994e-13
2.352818e-13
1.885432e-13
2.313745e-14
-6.044758e-14
-4.644352e-14
-4.637873e-15
1.558627e-14
1.144514e-14
8.543472e-16
-4.029467e-15
-2.842639e-15
-2.513278e-17
8.070084e-16
9.998576e-01
1.000391e+00
1.000978e+00
9.982454e-01
9.938449e-01
9.989027e-01
1.021640e+00
1.047029e+00
1.033521e+00
9.376523e-01
7.481495e-01
5.000000e-01
2.565072e-01
7.418325e-02
-2.367358e-02
-4.974735e-02
-3.605329e-02
-1.314854e-02
1.979694e-03
6.293580e-03
4.232510e-03
9.962658e-04
-7.647232e-04
-9.181849e-04
-3.885943e-04
5.427040e-05
1.785670e-04
1.041448e-04
6.398880e-06
-3.375199e-05
-2.510237e-05
-4.349550e-06
6.399577e-06
5.842155e-06
1.452319e-06
-1.235268e-06
-1.348450e-06
-4.090063e-07
2.447416e-07
3.121922e-07
1.073834e-07
-5.004377e-08
-7.284989e-08
-2.723500e-08
1.060015e-08
1.716440e-08
6.779512e-09
-2.330750e-09
-4.084543e-09
-1.669543e-09
5.320501e-10
9.812320e-10
4.084527e-10
-1.258440e-10
-2.377695e-10
-9.949407e-11
3.072636e-11
5.805980e-11
2.415744e-11
-7.706677e-12
-1.427232e-11
-5.849292e-12
1.975204e-12
3.528503e-12
1.412443e-12
-5.147079e-13
-8.765300e-13
-3.400503e-13
1.357694e-13
2.186045e-13
8.158481e-14
-3.612111e-14
-5.469374e-14
-1.949234e-14
9.664820e-15
1.371551e-14
4.648995e-15
-2.633493e-15
-3.450037e-15
-6.152140e-16
9.999249e-01
9.999136e-01
1.000751e+00
1.000698e+00
9.971267e-01
9.936333e-01
1.001240e+00
1.025253e+00
1.048300e+00
1.030207e+00
9.314951e-01
7.434928e-01
5.000000e-01
2.607263e-01
7.944948e-02
-2.049669e-02
-4.969293e-02
-3.802631e-02
-1.532462e-02
7.862402e-04
6.198379e-03
4.692982e-03
1.441030e-03
-5.875910e-04
-9.606802e-04
-4.958681e-04
-1.177197e-05
1.717319e-04
1.255864e-04
2.489968e-05
-2.887186e-05
-2.894350e-05
-8.993551e-06
4.666116e-06
6.469903e-06
2.565380e-06
-7.234336e-07
-1.439409e-06
-6.712201e-07
1.052075e-07
3.224413e-07
1.689934e-07
-1.350016e-08
-7.311251e-08
-4.178390e-08
1.232685e-09
1.681658e-08
1.024607e-08
4.250133e-11
-3.925458e-09
-2.504429e-09
-6.541620e-11
9.294942e-10
6.117937e-10
2.407389e-11
-2.230377e-10
-1.495616e-10
-6.832279e-12
5.416762e-11
3.661066e-11
1.696759e-12
-1.329650e-11
-8.975016e-12
-3.786555e-13
3.294371e-12
2.203238e-12
7.448743e-14
-8.227526e-13
-5.414761e-13
-1.170274e-14
2.068672e-13
1.331813e-13
7.823274e-16
-5.230627e-14
-3.276836e-14
4.282372e-16
1.328928e-14
8.123668e-15
-6.108685e-16
-2.578064e-15
1.000006e+00
9.998233e-01
1.000107e+00
1.000985e+00
1.000202e+00
9.961342e-01
9.938061e-01
1.003671e+00
1.028462e+00
1.049116e+00
1.026916e+00
9.258168e-01
7.392737e-01
5.000000e-01
2.645791e-01
8.435741e-02
-1.739393e-02
-4.945427e-02
-3.977161e-02
-1.740366e-02
-4.573137e-04
5.999258e-03
5.087453e-03
1.883602e-03
-3.777493e-04
-9.740853e-04
-5.948143e-04
-8.482738e-05
1.554224e-04
1.427778e-04
4.435395e-05
-2.139891e-05
-3.126227e-05
-1.363065e-05
2.289099e-06
6.631888e-06
3.617246e-06
-6.021849e-08
-1.399159e-06
-9.051431e-07
-6.897309e-08
2.973831e-07
2.208326e-07
3.089032e-08
-6.411622e-08
-5.334342e-08
-9.914162e-09
1.407510e-08
1.285569e-08
2.823254e-09
-3.152120e-09
-3.103197e-09
-7.577441e-10
7.206485e-10
7.517447e-10
1.965410e-10
-1.681575e-10
-1.829157e-10
-4.987841e-11
4.001048e-11
4.471502e-11
1.246817e-11
-9.692956e-12
-1.098056e-11
-3.081429e-12
2.386538e-12
2.707845e-12
7.545017e-13
-5.959811e-13
-6.702918e-13
-1.832180e-13
1.506442e-13
1.664699e-13
4.413544e-14
-3.846395e-14
-4.145186e-14
-1.058951e-14
1.003180e-14
1.028359e-14
1.240726e-15
1.000029e+00
9.999303e-01
9.998111e-01
1.000351e+00
1.001072e+00
9.995788e-01
9.953092e-01
9.942810e-01
1.006117e+00
1.031305e+00
1.049574e+00
1.023674e+00
9.205505e-01
7.354209e-01
5.000000e-01
2.681209e-01
8.895097e-02
-1.436984e-02
-4.906574e-02
-4.131437e-02
-1.938396e-02
-1.733646e-03
5.709499e-03
5.416538e-03
2.316789e-03
-1.414081e-04
-9.594827e-04
-6.829811e-04
-1.623809e-04
1.303679e-04
1.550317e-04
6.387536e-05
-1.167825e-05
-3.189991e-05
-1.798191e-05
-5.986387e-07
6.298567e-06
4.526933e-06
7.094513e-07
-1.223949e-06
-1.088485e-06
-2.638250e-07
2.371115e-07
2.569670e-07
7.901380e-08
-4.614528e-08
-6.036392e-08
-2.167351e-08
9.072624e-09
1.420764e-08
5.688817e-09
-1.811594e-09
-3.362582e-09
-1.457254e-09
3.694894e-10
8.016747e-10
3.680276e-10
-7.746569e-11
-1.926660e-10
-9.215374e-11
1.680203e-11
4.667946e-11
2.295388e-11
-3.790044e-12
-1.139796e-11
-5.698307e-12
8.915065e-13
2.803367e-12
1.411449e-12
-2.184928e-13
-6.940675e-13
-3.490412e-13
5.555628e-14
1.728577e-13
8.619183e-14
-1.454020e-14
-4.329386e-14
-2.140582e-14
4.854066e-15
8.104254e-15
1.000014e+00
1.000021e+00
9.998554e-01
9.998752e-01
1.000588e+00
1.001019e+00
9.988948e-01
9.946634e-01
9.949897e-01
1.008531e+00
1.033824e+00
1.049747e+00
1.020497e+00
9.156426e-01
7.318791e-01
5.000000e-01
2.713955e-01
9.326648e-02
-1.142615e-02
-4.855462e-02
-4.267658e-02
-2.126611e-02
-3.029044e-03
5.341102e-03
5.682066e-03
2.735059e-03
1.157604e-04
-9.184870e-04
-7.586122e-04
-2.421489e-04
9.749593e-05
1.619292e-04
8.267451e-05
-1.193539e-07
-3.079328e-05
-2.180656e-05
-3.845580e-06
5.472165e-06
5.227414e-06
1.535733e-06
-9.199840e-07
-1.203715e-06
-4.641798e-07
1.447012e-07
2.729939e-07
1.264861e-07
-2.034716e-08
-6.176649e-08
-3.282080e-08
2.185858e-09
1.404078e-08
8.304840e-09
-1.878941e-11
-3.219559e-09
-2.074012e-09
-9.054748e-11
7.463077e-10
5.145794e-10
3.961908e-11
-1.750724e-10
-1.273179e-10
-1.286590e-11
4.157509e-11
3.148229e-11
3.711459e-12
-9.992606e-12
-7.789656e-12
-1.003830e-12
2.429481e-12
1.929872e-12
2.604172e-13
-5.970237e-13
-4.788766e-13
-6.551196e-14
1.481459e-13
1.190059e-13
1.619749e-14
-3.751501e-14
-2.912946e-14
-1.013595e-15
9.999978e-01
1.000036e+00
9.999817e-01
9.998067e-01
9.999944e-01
1.000788e+00
1.000848e+00
9.981972e-01
9.941929e-01
9.958770e-01
1.010880e+00
1.036053e+00
1.049693e+00
1.017394e+00
9.110490e-01
7.286045e-01
5.000000e-01
2.744380e-01
9.733435e-02
-8.562812e-03
-4.794286e-02
-4.387751e-02
-2.305210e-02
-4.332653e-03
4.904803e-03
5.886652e-03
3.134235e-03
3.886664e-04
-8.530440e-04
-8.205327e-04
-3.221098e-04
5.784855e-05
1.632781e-04
1.000735e-04
1.283584e-05
-2.795992e-05
-2.490768e-05
-7.293043e-06
4.181436e-06
5.667600e-06
2.367794e-06
-5.016435e-07
-1.238701e-06
-6.549536e-07
2.562502e-08
2.662357e-07
1.690531e-07
1.145222e-08
-5.699940e-08
-4.219558e-08
-6.021282e-09
1.224964e-08
1.036142e-08
2.060558e-09
-2.655903e-09
-2.526334e-09
-6.123572e-10
5.830063e-10
6.148236e-10
1.700199e-10
-1.299068e-10
-1.497984e-10
-4.542393e-11
2.943777e-11
3.660196e-11
1.184937e-11
-6.792494e-12
-8.977143e-12
-3.042531e-12
1.596842e-12
2.210984e-12
7.726344e-13
-3.824525e-13
-5.468708e-13
-1.945991e-13
9.319130e-14
1.359296e-13
4.899448e-14
-2.576325e-14
-2.455474e-14
9.999940e-01
1.000013e+00
1.000040e+00
9.999293e-01
9.997944e-01
1.000146e+00
1.000932e+00
1.000583e+00
9.975182e-01
9.938866e-01
9.968988e-01
1.013149e+00
1.038026e+00
1.049454e+00
1.014370e+00
9.067335e-01
7.255620e-01
5.000000e-01
2.772774e-01
1.011802e-01
-5.778634e-03
-4.724824e-02
-4.493399e-02
-2.474488e-02
-5.635896e-03
4.410142e-03
6.033385e-03
3.511241e-03
6.728019e-04
-7.652840e-04
-8.680445e-04
-4.005121e-04
1.251940e-05
1.590712e-04
1.155101e-04
2.673780e-05
-2.348249e-05
-2.713391e-05
-1.078425e-05
2.476040e-06
5.812843e-06
3.156924e-06
1.047251e-08
-1.186824e-06
-8.221650e-07
-1.129009e-07
2.357607e-07
2.029102e-07
4.695955e-08
-4.603897e-08
-4.879817e-08
-1.486344e-08
8.883161e-09
1.160169e-08
4.229801e-09
-1.697426e-09
-2.749064e-09
-1.141058e-09
3.214637e-10
6.523361e-10
2.987099e-10
-6.034792e-11
-1.554602e-10
-7.681221e-11
1.123534e-11
3.726913e-11
1.953706e-11
-2.078802e-12
-8.995981e-12
-4.935682e-12
3.845233e-13
2.187158e-12
1.241703e-12
-7.207060e-14
-5.355978e-13
-3.115607e-13
1.368360e-14
1.334800e-13
7.550542e-14
-7.445077e-15
9.999974e-01
9.999948e-01
1.000029e+00
1.000026e+00
9.998778e-01
9.998187e-01
1.000310e+00
1.001013e+00
1.000247e+00
9.968789e-01
9.937296e-01
9.980203e-01
1.015325e+00
1.039772e+00
1.049066e+00
1.011426e+00
9.026657e-01
7.227226e-01
5.000000e-01
2.799374e-01
1.048261e-01
-3.071720e-03
-4.648529e-02
-4.586081e-02
-2.634793e-02
-6.932005e-03
3.865563e-03
6.125616e-03
3.863888e-03
9.642165e-04
-6.574144e-04
-9.008343e-04
-4.758674e-04
-3.739305e-05
1.494494e-04
1.285360e-04
4.114788e-05
-1.749405e-05
-2.837831e-05
-1.417109e-05
4.210481e-07
5.644367e-06
3.858855e-06