# vtk DataFile Version 3.0
QUICK_DC(JC)
ASCII
DATASET STRUCTURED_GRID
DIMENSIONS 41 41 1
POINTS 1681 double
0.000000e+00 0.000000e+00 0.0
2.500000e-02 0.000000e+00 0.0
5.000000e-02 0.000000e+00 0.0
7.500000e-02 0.000000e+00 0.0
1.000000e-01 0.000000e+00 0.0
1.250000e-01 0.000000e+00 0.0
1.500000e-01 0.000000e+00 0.0
1.750000e-01 0.000000e+00 0.0
2.000000e-01 0.000000e+00 0.0
2.250000e-01 0.000000e+00 0.0
2.500000e-01 0.000000e+00 0.0
2.750000e-01 0.000000e+00 0.0
3.000000e-01 0.000000e+00 0.0
3.250000e-01 0.000000e+00 0.0
3.500000e-01 0.000000e+00 0.0
3.750000e-01 0.000000e+00 0.0
4.000000e-01 0.000000e+00 0.0
4.250000e-01 0.000000e+00 0.0
4.500000e-01 0.000000e+00 0.0
4.750000e-01 0.000000e+00 0.0
5.000000e-01 0.000000e+00 0.0
5.250000e-01 0.000000e+00 0.0
5.500000e-01 0.000000e+00 0.0
5.750000e-01 0.000000e+00 0.0
6.000000e-01 0.000000e+00 0.0
6.250000e-01 0.000000e+00 0.0
6.500000e-01 0.000000e+00 0.0
6.750000e-01 0.000000e+00 0.0
7.000000e-01 0.000000e+00 0.0
7.250000e-01 0.000000e+00 0.0
7.500000e-01 0.000000e+00 0.0
7.750000e-01 0.000000e+00 0.0
8.000000e-01 0.000000e+00 0.0
8.250000e-01 0.000000e+00 0.0
8.500000e-01 0.000000e+00 0.0
8.750000e-01 0.000000e+00 0.0
9.000000e-01 0.000000e+00 0.0
9.250000e-01 0.000000e+00 0.0
9.500000e-01 0.000000e+00 0.0
9.750000e-01 0.000000e+00 0.0
1.000000e+00 0.000000e+00 0.0
0.000000e+00 2.500000e-02 0.0
2.500000e-02 2.500000e-02 0.0
5.000000e-02 2.500000e-02 0.0
7.500000e-02 2.500000e-02 0.0
1.000000e-01 2.500000e-02 0.0
1.250000e-01 2.500000e-02 0.0
1.500000e-01 2.500000e-02 0.0
1.750000e-01 2.500000e-02 0.0
2.000000e-01 2.500000e-02 0.0
2.250000e-01 2.500000e-02 0.0
2.500000e-01 2.500000e-02 0.0
2.750000e-01 2.500000e-02 0.0
3.000000e-01 2.500000e-02 0.0
3.250000e-01 2.500000e-02 0.0
3.500000e-01 2.500000e-02 0.0
3.750000e-01 2.500000e-02 0.0
4.000000e-01 2.500000e-02 0.0
4.250000e-01 2.500000e-02 0.0
4.500000e-01 2.500000e-02 0.0
4.750000e-01 2.500000e-02 0.0
5.000000e-01 2.500000e-02 0.0
5.250000e-01 2.500000e-02 0.0
5.500000e-01 2.500000e-02 0.0
5.750000e-01 2.500000e-02 0.0
6.000000e-01 2.500000e-02 0.0
6.250000e-01 2.500000e-02 0.0
6.500000e-01 2.500000e-02 0.0
6.750000e-01 2.500000e-02 0.0
7.000000e-01 2.500000e-02 0.0
7.250000e-01 2.500000e-02 0.0
7.500000e-01 2.500000e-02 0.0
7.750000e-01 2.500000e-02 0.0
8.000000e-01 2.500000e-02 0.0
8.250000e-01 2.500000e-02 0.0
8.500000e-01 2.500000e-02 0.0
8.750000e-01 2.500000e-02 0.0
9.000000e-01 2.500000e-02 0.0
9.250000e-01 2.500000e-02 0.0
9.500000e-01 2.500000e-02 0.0
9.750000e-01 2.500000e-02 0.0
1.000000e+00 2.500000e-02 0.0
0.000000e+00 5.000000e-02 0.0
2.500000e-02 5.000000e-02 0.0
5.000000e-02 5.000000e-02 0.0
7.500000e-02 5.000000e-02 0.0
1.000000e-01 5.000000e-02 0.0
1.250000e-01 5.000000e-02 0.0
1.500000e-01 5.000000e-02 0.0
1.750000e-01 5.000000e-02 0.0
2.000000e-01 5.000000e-02 0.0
2.250000e-01 5.000000e-02 0.0
2.500000e-01 5.000000e-02 0.0
2.750000e-01 5.000000e-02 0.0
3.000000e-01 5.000000e-02 0.0
3.250000e-01 5.000000e-02 0.0
3.500000e-01 5.000000e-02 0.0
3.750000e-01 5.000000e-02 0.0
4.000000e-01 5.000000e-02 0.0
4.250000e-01 5.000000e-02 0.0
4.500000e-01 5.000000e-02 0.0
4.750000e-01 5.000000e-02 0.0
5.000000e-01 5.000000e-02 0.0
5.250000e-01 5.000000e-02 0.0
5.500000e-01 5.000000e-02 0.0
5.750000e-01 5.000000e-02 0.0
6.000000e-01 5.000000e-02 0.0
6.250000e-01 5.000000e-02 0.0
6.500000e-01 5.000000e-02 0.0
6.750000e-01 5.000000e-02 0.0
7.000000e-01 5.000000e-02 0.0
7.250000e-01 5.000000e-02 0.0
7.500000e-01 5.000000e-02 0.0
7.750000e-01 5.000000e-02 0.0
8.000000e-01 5.000000e-02 0.0
8.250000e-01 5.000000e-02 0.0
8.500000e-01 5.000000e-02 0.0
8.750000e-01 5.000000e-02 0.0
9.000000e-01 5.000000e-02 0.0
9.250000e-01 5.000000e-02 0.0
9.500000e-01 5.000000e-02 0.0
9.750000e-01 5.000000e-02 0.0
1.000000e+00 5.000000e-02 0.0
0.000000e+00 7.500000e-02 0.0
2.500000e-02 7.500000e-02 0.0
5.000000e-02 7.500000e-02 0.0
7.500000e-02 7.500000e-02 0.0
1.000000e-01 7.500000e-02 0.0
1.250000e-01 7.500000e-02 0.0
1.500000e-01 7.500000e-02 0.0
1.750000e-01 7.500000e-02 0.0
2.000000e-01 7.500000e-02 0.0
2.250000e-01 7.500000e-02 0.0
2.500000e-01 7.500000e-02 0.0
2.750000e-01 7.500000e-02 0.0
3.000000e-01 7.500000e-02 0.0
3.250000e-01 7.500000e-02 0.0
3.500000e-01 7.500000e-02 0.0
3.750000e-01 7.500000e-02 0.0
4.000000e-01 7.500000e-02 0.0
4.250000e-01 7.500000e-02 0.0
4.500000e-01 7.500000e-02 0.0
4.750000e-01 7.500000e-02 0.0
5.000000e-01 7.500000e-02 0.0
5.250000e-01 7.500000e-02 0.0
5.500000e-01 7.500000e-02 0.0
5.750000e-01 7.500000e-02 0.0
6.000000e-01 7.500000e-02 0.0
6.250000e-01 7.500000e-02 0.0
6.500000e-01 7.500000e-02 0.0
6.750000e-01 7.500000e-02 0.0
7.000000e-01 7.500000e-02 0.0
7.250000e-01 7.500000e-02 0.0
7.500000e-01 7.500000e-02 0.0
7.750000e-01 7.500000e-02 0.0
8.000000e-01 7.500000e-02 0.0
8.250000e-01 7.500000e-02 0.0
8.500000e-01 7.500000e-02 0.0
8.750000e-01 7.500000e-02 0.0
9.000000e-01 7.500000e-02 0.0
9.250000e-01 7.500000e-02 0.0
9.500000e-01 7.500000e-02 0.0
9.750000e-01 7.500000e-02 0.0
1.000000e+00 7.500000e-02 0.0
0.000000e+00 1.000000e-01 0.0
2.500000e-02 1.000000e-01 0.0
5.000000e-02 1.000000e-01 0.0
7.500000e-02 1.000000e-01 0.0
1.000000e-01 1.000000e-01 0.0
1.250000e-01 1.000000e-01 0.0
1.500000e-01 1.000000e-01 0.0
1.750000e-01 1.000000e-01 0.0
2.000000e-01 1.000000e-01 0.0
2.250000e-01 1.000000e-01 0.0
2.500000e-01 1.000000e-01 0.0
2.750000e-01 1.000000e-01 0.0
3.000000e-01 1.000000e-01 0.0
3.250000e-01 1.000000e-01 0.0
3.500000e-01 1.000000e-01 0.0
3.750000e-01 1.000000e-01 0.0
4.000000e-01 1.000000e-01 0.0
4.250000e-01 1.000000e-01 0.0
4.500000e-01 1.000000e-01 0.0
4.750000e-01 1.000000e-01 0.0
5.000000e-01 1.000000e-01 0.0
5.250000e-01 1.000000e-01 0.0
5.500000e-01 1.000000e-01 0.0
5.750000e-01 1.000000e-01 0.0
6.000000e-01 1.000000e-01 0.0
6.250000e-01 1.000000e-01 0.0
6.500000e-01 1.000000e-01 0.0
6.750000e-01 1.000000e-01 0.0
7.000000e-01 1.000000e-01 0.0
7.250000e-01 1.000000e-01 0.0
7.500000e-01 1.000000e-01 0.0
7.750000e-01 1.000000e-01 0.0
8.000000e-01 1.000000e-01 0.0
8.250000e-01 1.000000e-01 0.0
8.500000e-01 1.000000e-01 0.0
8.750000e-01 1.000000e-01 0.0
9.000000e-01 1.000000e-01 0.0
9.250000e-01 1.000000e-01 0.0
9.500000e-01 1.000000e-01 0.0
9.750000e-01 1.000000e-01 0.0
1.000000e+00 1.000000e-01 0.0
0.000000e+00 1.250000e-01 0.0
2.500000e-02 1.250000e-01 0.0
5.000000e-02 1.250000e-01 0.0
7.500000e-02 1.250000e-01 0.0
1.000000e-01 1.250000e-01 0.0
1.250000e-01 1.250000e-01 0.0
1.500000e-01 1.250000e-01 0.0
1.750000e-01 1.250000e-01 0.0
2.000000e-01 1.250000e-01 0.0
2.250000e-01 1.250000e-01 0.0
2.500000e-01 1.250000e-01 0.0
2.750000e-01 1.250000e-01 0.0
3.000000e-01 1.250000e-01 0.0
3.250000e-01 1.250000e-01 0.0
3.500000e-01 1.250000e-01 0.0
3.750000e-01 1.250000e-01 0.0
4.000000e-01 1.250000e-01 0.0
4.250000e-01 1.250000e-01 0.0
4.500000e-01 1.250000e-01 0.0
4.750000e-01 1.250000e-01 0.0
5.000000e-01 1.250000e-01 0.0
5.250000e-01 1.250000e-01 0.0
5.500000e-01 1.250000e-01 0.0
5.750000e-01 1.250000e-01 0.0
6.000000e-01 1.250000e-01 0.0
6.250000e-01 1.250000e-01 0.0
6.500000e-01 1.250000e-01 0.0
6.750000e-01 1.250000e-01 0.0
7.000000e-01 1.250000e-01 0.0
7.250000e-01 1.250000e-01 0.0
7.500000e-01 1.250000e-01 0.0
7.750000e-01 1.250000e-01 0.0
8.000000e-01 1.250000e-01 0.0
8.250000e-01 1.250000e-01 0.0
8.500000e-01 1.250000e-01 0.0
8.750000e-01 1.250000e-01 0.0
9.000000e-01 1.250000e-01 0.0
9.250000e-01 1.250000e-01 0.0
9.500000e-01 1.250000e-01 0.0
9.750000e-01 1.250000e-01 0.0
1.000000e+00 1.250000e-01 0.0
0.000000e+00 1.500000e-01 0.0
2.500000e-02 1.500000e-01 0.0
5.000000e-02 1.500000e-01 0.0
7.500000e-02 1.500000e-01 0.0
1.000000e-01 1.500000e-01 0.0
1.250000e-01 1.500000e-01 0.0
1.500000e-01 1.500000e-01 0.0
1.750000e-01 1.500000e-01 0.0
2.000000e-01 1.500000e-01 0.0
2.250000e-01 1.500000e-01 0.0
2.500000e-01 1.500000e-01 0.0
2.750000e-01 1.500000e-01 0.0
3.000000e-01 1.500000e-01 0.0
3.250000e-01 1.500000e-01 0.0
3.500000e-01 1.500000e-01 0.0
3.750000e-01 1.500000e-01 0.0
4.000000e-01 1.500000e-01 0.0
4.250000e-01 1.500000e-01 0.0
4.500000e-01 1.500000e-01 0.0
4.750000e-01 1.500000e-01 0.0
5.000000e-01 1.500000e-01 0.0
5.250000e-01 1.500000e-01 0.0
5.500000e-01 1.500000e-01 0.0
5.750000e-01 1.500000e-01 0.0
6.000000e-01 1.500000e-01 0.0
6.250000e-01 1.500000e-01 0.0
6.500000e-01 1.500000e-01 0.0
6.750000e-01 1.500000e-01 0.0
7.000000e-01 1.500000e-01 0.0
7.250000e-01 1.500000e-01 0.0
7.500000e-01 1.500000e-01 0.0
7.750000e-01 1.500000e-01 0.0
8.000000e-01 1.500000e-01 0.0
8.250000e-01 1.500000e-01 0.0
8.500000e-01 1.500000e-01 0.0
8.750000e-01 1.500000e-01 0.0
9.000000e-01 1.500000e-01 0.0
9.250000e-01 1.500000e-01 0.0
9.500000e-01 1.500000e-01 0.0
9.750000e-01 1.500000e-01 0.0
1.000000e+00 1.500000e-01 0.0
0.000000e+00 1.750000e-01 0.0
2.500000e-02 1.750000e-01 0.0
5.000000e-02 1.750000e-01 0.0
7.500000e-02 1.750000e-01 0.0
1.000000e-01 1.750000e-01 0.0
1.250000e-01 1.750000e-01 0.0
1.500000e-01 1.750000e-01 0.0
1.750000e-01 1.750000e-01 0.0
2.000000e-01 1.750000e-01 0.0
2.250000e-01 1.750000e-01 0.0
2.500000e-01 1.750000e-01 0.0
2.750000e-01 1.750000e-01 0.0
3.000000e-01 1.750000e-01 0.0
3.250000e-01 1.750000e-01 0.0
3.500000e-01 1.750000e-01 0.0
3.750000e-01 1.750000e-01 0.0
4.000000e-01 1.750000e-01 0.0
4.250000e-01 1.750000e-01 0.0
4.500000e-01 1.750000e-01 0.0
4.750000e-01 1.750000e-01 0.0
5.000000e-01 1.750000e-01 0.0
5.250000e-01 1.750000e-01 0.0
5.500000e-01 1.750000e-01 0.0
5.750000e-01 1.750000e-01 0.0
6.000000e-01 1.750000e-01 0.0
6.250000e-01 1.750000e-01 0.0
6.500000e-01 1.750000e-01 0.0
6.750000e-01 1.750000e-01 0.0
7.000000e-01 1.750000e-01 0.0
7.250000e-01 1.750000e-01 0.0
7.500000e-01 1.750000e-01 0.0
7.750000e-01 1.750000e-01 0.0
8.000000e-01 1.750000e-01 0.0
8.250000e-01 1.750000e-01 0.0
8.500000e-01 1.750000e-01 0.0
8.750000e-01 1.750000e-01 0.0
9.000000e-01 1.750000e-01 0.0
9.250000e-01 1.750000e-01 0.0
9.500000e-01 1.750000e-01 0.0
9.750000e-01 1.750000e-01 0.0
1.000000e+00 1.750000e-01 0.0
0.000000e+00 2.000000e-01 0.0
[...]
CELL_DATA 1600
SCALARS Temperature double 1
LOOKUP_TABLE default
5.000000e-01
6.188367e-02
-3.961222e-02
-2.603575e-02
-2.989148e-03
4.671615e-03
2.944565e-03
1.600566e-04
-7.648645e-04
-4.409185e-04
5.095058e-06
1.424324e-04
7.509957e-05
-6.115552e-06
-2.856463e-05
-1.375400e-05
2.163639e-06
6.006765e-06
2.632116e-06
-6.372043e-07
-1.304661e-06
-5.173805e-07
1.757037e-07
2.899574e-07
1.032284e-07
-4.699439e-08
-6.553046e-08
-2.070948e-08
1.236673e-08
1.499417e-08
4.140652e-09
-3.223377e-09
-3.462361e-09
-8.168916e-10
8.350227e-10
8.047694e-10
1.576512e-10
-2.179664e-10
-1.850822e-10
-1.055093e-11
9.381163e-01
5.000000e-01
1.358050e-01
-2.328140e-02
-4.225380e-02
-1.681271e-02
1.921545e-03
5.544789e-03
2.382411e-03
-3.734028e-04
-9.332709e-04
-3.910130e-04
8.642758e-05
1.767047e-04
6.966662e-05
-2.092927e-05
-3.579001e-05
-1.302151e-05
5.158058e-06
7.568024e-06
2.502070e-06
-1.282911e-06
-1.647971e-06
-4.873175e-07
3.208991e-07
3.663922e-07
9.508132e-08
-8.057475e-08
-8.269525e-08
-1.836235e-08
2.028536e-08
1.887041e-08
3.456665e-09
-5.116434e-09
-4.340139e-09
-6.195322e-10
1.291917e-09
1.011233e-09
6.635302e-11
-2.553052e-10
1.039612e+00
8.641950e-01
5.000000e-01
1.695997e-01
-6.242359e-03
-4.667022e-02
-2.668077e-02
-2.957328e-03
5.866269e-03
4.214989e-03
6.057315e-04
-9.777464e-04
-7.505676e-04
-1.073821e-04
1.889254e-04
1.446251e-04
1.831405e-05
-3.963059e-05
-2.931869e-05
-2.961357e-06
8.739043e-06
6.149599e-06
4.243204e-07
-1.990672e-06
-1.320665e-06
-4.198048e-08
4.636130e-07
2.883452e-07
-2.970720e-09
-1.096735e-07
-6.367981e-08
3.660129e-09
2.623932e-08
1.417004e-08
-1.564031e-09
-6.328313e-09
-3.173526e-09
5.509204e-10
1.557952e-09
4.483065e-10
1.026036e+00
1.023281e+00
8.304003e-01
5.000000e-01
1.906250e-01
8.135614e-03
-4.699545e-02
-3.376551e-02
-8.140459e-03
4.913727e-03
5.466504e-03
1.754597e-03
-6.981703e-04
-9.852207e-04
-3.507679e-04
1.248052e-04
1.932548e-04
7.071850e-05
-2.581923e-05
-4.014528e-05
-1.449157e-05
5.833702e-06
8.674250e-06
3.008497e-06
-1.388675e-06
-1.927067e-06
-6.296040e-07
3.409330e-07
4.368049e-07
1.321366e-07
-8.526288e-08
-1.004825e-07
-2.766211e-08
2.156294e-08
2.336804e-08
5.743567e-09
-5.486666e-09
-5.523050e-09
-1.004369e-09
1.144584e-09
1.002989e+00
1.042254e+00
1.006242e+00
8.093750e-01
5.000000e-01
2.055563e-01
2.030219e-02
-4.544514e-02
-3.886002e-02
-1.307375e-02
3.215709e-03
6.155174e-03
2.873318e-03
-2.021800e-04
-1.071791e-03
-5.884817e-04
5.569588e-06
2.055774e-04
1.222457e-04
1.531924e-06
-4.235940e-05
-2.599686e-05
-3.750986e-07
9.184568e-06
5.644309e-06
2.057925e-08
-2.065254e-06
-1.245728e-06
2.026552e-08
4.767726e-07
2.783774e-07
-1.211489e-08
-1.122041e-07
-6.277575e-08
4.851892e-09
2.677775e-08
1.427316e-08
-1.717870e-09
-6.580971e-09
-2.088794e-09
9.953284e-01
1.016813e+00
1.046670e+00
9.918644e-01
7.944437e-01
5.000000e-01
2.170431e-01
3.080289e-02
-4.296208e-02
-4.253284e-02
-1.758541e-02
1.097545e-03
6.366839e-03
3.865781e-03
4.211035e-04
-1.019054e-03
-7.877540e-04
-1.460243e-04
1.813289e-04
1.633245e-04
3.681490e-05
-3.541831e-05
-3.487543e-05
-8.539672e-06
7.446474e-06
7.650130e-06
1.919204e-06
-1.655200e-06
-1.715382e-06
-4.245172e-07
3.833541e-07
3.913777e-07
9.283215e-08
-9.148160e-08
-9.051014e-08
-2.007124e-08
2.229130e-08
2.132407e-08
3.621811e-09
-4.497941e-09
9.970554e-01
9.980785e-01
1.026681e+00
1.046995e+00
9.796978e-01
7.829569e-01
5.000000e-01
2.263400e-01
4.002282e-02
-4.000472e-02
-4.516818e-02
-2.163972e-02
-1.239588e-03
6.194098e-03
4.690800e-03
1.105117e-03
-8.480504e-04
-9.315805e-04
-3.102744e-04
1.252678e-04
1.884280e-04
7.456808e-05
-2.039048e-05
-3.950921e-05
-1.721089e-05
3.692575e-06
8.575881e-06
3.933539e-06
-7.449035e-07
-1.916720e-06
-8.988641e-07
1.656373e-07
4.386582e-07
2.059581e-07
-3.977785e-08
-1.022784e-07
-4.743660e-08
1.026614e-08
2.455925e-08
6.874724e-09
9.998399e-01
9.944552e-01
1.002957e+00
1.033766e+00
1.045445e+00
9.691971e-01
7.736600e-01
5.000000e-01
2.341276e-01
4.823218e-02
-3.681373e-02
-4.702928e-02
-2.525336e-02
-3.670579e-03
5.719213e-03
5.336686e-03
1.802739e-03
-5.829702e-04
-1.013371e-03
-4.718306e-04
4.431345e-05
1.951866e-04
1.102221e-04
8.080709e-07
-3.916844e-05
-2.510660e-05
-1.565769e-06
8.210463e-06
5.716845e-06
5.335515e-07
-1.790254e-06
-1.311123e-06
-1.431562e-07
4.036532e-07
3.033759e-07
3.476689e-08
-9.352792e-08
-7.135534e-08
-5.582136e-09
1.756492e-08
1.000765e+00
9.976176e-01
9.941337e-01
1.008140e+00
1.038860e+00
1.042962e+00
9.599772e-01
7.658724e-01
5.000000e-01
2.408136e-01
5.562534e-02
-3.352271e-02
-4.830109e-02
-2.846183e-02
-6.117176e-03
5.010536e-03
5.807157e-03
2.481793e-03
-2.470203e-04
-1.033012e-03
-6.195674e-04
-5.412200e-05
1.834594e-04
1.403333e-04
2.594739e-05
-3.381745e-05
-3.123419e-05
-7.692376e-06
6.546114e-06
6.994795e-06
2.005835e-06
-1.333679e-06
-1.587285e-06
-4.966098e-07
2.854125e-07
3.653611e-07
1.202928e-07
-6.468166e-08
-8.562282e-08
-1.667861e-08
1.000441e+00
1.000373e+00
9.957850e-01
9.950863e-01
1.013074e+00
1.042533e+00
1.040005e+00
9.517678e-01
7.591864e-01
5.000000e-01
2.466611e-01
6.234602e-02
-3.020872e-02
-4.911684e-02
-3.130554e-02
-8.530466e-03
4.123275e-03
6.113552e-03
3.121076e-03
1.392519e-04
-9.941751e-04
-7.459561e-04
-1.630326e-04
1.545537e-04
1.625579e-04
5.282232e-05
-2.390786e-05
-3.492208e-05
-1.403690e-05
3.726826e-06
7.583524e-06
3.488826e-06
-5.896012e-07
-1.678093e-06
-8.447110e-07
9.569973e-08
3.790481e-07
2.039645e-07
-2.430863e-08
-6.651556e-08
9.999949e-01
1.000933e+00
9.993943e-01
9.945335e-01
9.967843e-01
1.017585e+00
1.045168e+00
1.036814e+00
9.443747e-01
7.533389e-01
5.000000e-01
2.518494e-01
6.850321e-02
-2.691723e-02
-4.957466e-02
-3.382397e-02
-1.088022e-02
3.101457e-03
6.270535e-03
3.707247e-03
5.584403e-04
-9.025612e-04
-8.463298e-04
-2.762477e-04
1.106315e-04
1.755086e-04
7.944605e-05
-1.019707e-05
-3.579995e-05
-2.000591e-05
-3.947166e-09
7.389685e-06
4.814103e-06
3.689106e-07
-1.560456e-06
-1.141156e-06
-1.453318e-07
3.417865e-07
2.667748e-07
1.599769e-08
9.998576e-01
1.000391e+00
1.000978e+00
9.982454e-01
9.938448e-01
9.989025e-01
1.021640e+00
1.047029e+00
1.033523e+00
9.376540e-01
7.481506e-01
5.000000e-01
2.565060e-01
7.418146e-02
-2.367517e-02
-4.974824e-02
-3.605346e-02
-1.314829e-02
1.980006e-03
6.293753e-03
4.232527e-03
9.962069e-04
-7.647782e-04
-9.182043e-04
-3.885869e-04
5.428400e-05
1.785742e-04
1.041446e-04
6.395825e-06
-3.375411e-05
-2.510265e-05
-4.348892e-06
6.400155e-06
5.842301e-06
1.452028e-06
-1.234879e-06
-1.349319e-06
-4.115924e-07
2.682194e-07
2.273167e-07
9.999249e-01
9.999136e-01
1.000751e+00
1.000698e+00
9.971267e-01
9.936332e-01
1.001240e+00
1.025253e+00
1.048301e+00
1.030209e+00
9.314968e-01
7.434940e-01
5.000000e-01
2.607251e-01
7.944762e-02
-2.049837e-02
-4.969391e-02
-3.802654e-02
-1.532439e-02
7.865698e-04
6.198580e-03
4.693019e-03
1.440976e-03
-5.876517e-04
-9.607069e-04
-4.958643e-04
-1.175804e-05
1.717410e-04
1.255876e-04
2.489685e-05
-2.887439e-05
-2.894419e-05
-8.993037e-06
4.666852e-06
6.469979e-06
2.565113e-06
-7.206185e-07
-1.452307e-06
-6.437872e-07
1.269580e-07
1.000006e+00
9.998233e-01
1.000107e+00
1.000985e+00
1.000202e+00
9.961342e-01
9.938059e-01
1.003671e+00
1.028462e+00
1.049117e+00
1.026917e+00
9.258185e-01
7.392749e-01
5.000000e-01
2.645779e-01
8.435549e-02
-1.739571e-02
-4.945535e-02
-3.977191e-02
-1.740345e-02
-4.569696e-04
5.999487e-03
5.087511e-03
1.883554e-03
-3.778144e-04
-9.741191e-04
-5.948147e-04
-8.481371e-05
1.554331e-04
1.427804e-04
4.435157e-05
-2.140175e-05
-3.126343e-05
-1.363031e-05
2.290148e-06
6.630395e-06
3.622179e-06
-6.239088e-08
-1.450973e-06
-6.169538e-07
1.000029e+00
9.999303e-01
9.998111e-01
1.000351e+00
1.001072e+00
9.995789e-01
9.953092e-01
9.942808e-01
1.006117e+00
1.031306e+00
1.049575e+00
1.023675e+00
9.205524e-01
7.354221e-01
5.000000e-01
2.681196e-01
8.894899e-02
-1.437171e-02
-4.906690e-02
-4.131473e-02
-1.938378e-02
-1.733291e-03
5.709755e-03
5.416617e-03
2.316749e-03
-1.414765e-04
-9.595236e-04
-6.829863e-04
-1.623681e-04
1.303801e-04
1.550359e-04
6.387363e-05
-1.168125e-05
-3.190172e-05
-1.798100e-05
-5.989640e-07
6.293902e-06
4.565855e-06
5.743513e-07
-1.015476e-06
1.000014e+00
1.000021e+00
9.998554e-01
9.998752e-01
1.000588e+00
1.001019e+00
9.988949e-01
9.946633e-01
9.949895e-01
1.008530e+00
1.033824e+00
1.049748e+00
1.020498e+00
9.156445e-01
7.318804e-01
5.000000e-01
2.713942e-01
9.326444e-02
-1.142810e-02
-4.855587e-02
-4.267701e-02
-2.126595e-02
-3.028680e-03
5.341383e-03
5.682168e-03
2.735029e-03
1.156902e-04
-9.185345e-04
-7.586226e-04
-2.421375e-04
9.750930e-05
1.619351e-04
8.267373e-05
-1.226966e-07
-3.079562e-05
-2.180184e-05
-3.865619e-06
5.517887e-06
5.251461e-06
8.528075e-07
9.999978e-01
1.000036e+00
9.999817e-01
9.998067e-01
9.999944e-01
1.000788e+00
1.000848e+00
9.981973e-01
9.941928e-01
9.958767e-01
1.010880e+00
1.036053e+00
1.049694e+00
1.017396e+00
9.110510e-01
7.286058e-01
5.000000e-01
2.744367e-01
9.733225e-02
-8.564839e-03
-4.794420e-02
-4.387800e-02
-2.305197e-02
-4.332285e-03
4.905108e-03
5.886777e-03
3.134217e-03
3.885956e-04
-8.530978e-04
-8.205486e-04
-3.221005e-04
5.786270e-05
1.632856e-04
1.000741e-04
1.282983e-05
-2.795395e-05
-2.491404e-05
-7.365270e-06
4.631690e-06
4.225681e-06
9.999940e-01
1.000013e+00
1.000040e+00
9.999293e-01
9.997944e-01
1.000146e+00
1.000932e+00
1.000583e+00
9.975182e-01
9.938864e-01
9.968985e-01
1.013148e+00
1.038027e+00
1.049455e+00
1.014372e+00
9.067356e-01
7.255633e-01
5.000000e-01
2.772760e-01
1.011781e-01
-5.780737e-03
-4.724966e-02
-4.493455e-02
-2.474478e-02
-5.635525e-03
4.410470e-03
6.033533e-03
3.511235e-03
6.727318e-04
-7.653435e-04
-8.680660e-04
-4.005052e-04
1.253365e-05
1.590817e-04
1.155092e-04
2.672886e-05
-2.342689e-05
-2.736280e-05
-1.030805e-05
2.778364e-06
9.999974e-01
9.999948e-01
1.000029e+00
1.000026e+00
9.998778e-01
9.998187e-01
1.000310e+00
1.001013e+00
1.000247e+00
9.968789e-01
9.937295e-01
9.980200e-01
1.015324e+00
1.039772e+00
1.049067e+00
1.011428e+00
9.026677e-01
7.227240e-01
5.000000e-01
2.799360e-01
1.048239e-01
-3.073897e-03
-4.648680e-02
-4.586143e-02
-2.634786e-02
-6.931634e-03
3.865911e-03
6.125788e-03
3.863896e-03
9.641483e-04
-6.574791e-04
-9.008615e-04
-4.758641e-04
-3.737852e-05
1.494669e-04
1.285049e-04
4.123664e-05
-1.756363e-05
-2.914304e-05
-9.328492e-06
1.000001e+00
9.999924e-01
1.000003e+00
1.000040e+00
9.999985e-01
9.998367e-01
9.998747e-01
1.000472e+00
1.001033e+00
9.998607e-01
9.962928e-01
9.937062e-01
9.992134e-01
1.017403e+00
1.041315e+00
1.048556e+00
1.008565e+00
8.988219e-01
7.200640e-01
5.000000e-01
2.824364e-01
1.082885e-01
-4.419835e-04
-4.566756e-02
-4.667164e-02
-2.786501e-02
-8.215296e-03
3.278881e-03
6.167002e-03
4.190725e-03
1.259413e-03
-5.317133e-04
-9.189272e-04
-5.469396e-04
-9.078891e-05
1.346545e-04
1.387547e-04
5.626271e-05
-1.270879e-05
-2.248127e-05
1.000001e+00
9.999975e-01
9.999913e-01
1.000014e+00
1.000042e+00
9.999632e-01
9.998116e-01
9.999557e-01
1.000620e+00
1.000994e+00
9.994416e-01
9.957675e-01
9.938014e-01
1.000457e+00
1.019384e+00
1.042677e+00
1.047944e+00
1.005781e+00
8.951761e-01
7.175636e-01
5.000000e-01
2.847942e-01
1.115881e-01
2.117580e-03
-4.480187e-02
-4.737662e-02
-2.930015e-02
-9.482359e-03
2.655940e-03
6.160641e-03
4.490815e-03
1.555568e-03
-3.902021e-04
-9.225013e-04
-6.127071e-04
-1.466563e-04
1.147126e-04
1.471986e-04
6.836253e-05
-6.914347e-06
1.000001e+00
1.000001e+00
9.999939e-01
9.999942e-01
1.000026e+00
1.000035e+00
9.999254e-01
9.998048e-01
1.000054e+00
1.000746e+00
1.000903e+00
9.990038e-01
9.953070e-01
9.940005e-01
1.001733e+00
1.021266e+00
1.043878e+00
1.047250e+00
1.003074e+00
8.917115e-01
7.152058e-01
5.000000e-01
2.870236e-01
1.147371e-01
4.607489e-03
-4.389799e-02
-4.798650e-02
-3.065723e-02
-1.072961e-02
2.002857e-03
6.110109e-03
4.763710e-03
1.850083e-03
-2.350174e-04
-9.120281e-04
-6.721907e-04
-2.045706e-04
9.092264e-05
1.554756e-04
5.675033e-05
9.999998e-01
1.000002e+00
9.999996e-01
9.999913e-01
1.000000e+00
1.000035e+00
1.000020e+00
9.998898e-01
9.998165e-01
1.000163e+00
1.000846e+00
1.000765e+00
9.985590e-01
9.949125e-01
9.942902e-01
1.003029e+00
1.023052e+00
1.044935e+00
1.046487e+00
1.000442e+00
8.884119e-01
7.129764e-01
5.000000e-01
2.891370e-01
1.177478e-01
7.030476e-03
-4.296281e-02
-4.851024e-02
-3.194015e-02
-1.195458e-02
1.324704e-03
6.018695e-03
5.009308e-03
2.140831e-03
-6.820850e-05
-8.878573e-04
-7.248058e-04
-2.658797e-04
7.639033e-05
1.206697e-04
9.999997e-01
1.000000e+00
1.000002e+00
9.999970e-01
9.999908e-01
1.000009e+00
1.000040e+00
9.999992e-01
9.998597e-01
9.998455e-01
1.000276e+00
1.000918e+00
1.000588e+00
9.981165e-01
9.945835e-01
9.946587e-01
1.004332e+00
1.024745e+00
1.045861e+00
1.045668e+00
9.978824e-01
8.852629e-01
7.108630e-01
5.000000e-01
2.911450e-01
1.206313e-01
9.389250e-03
-4.200217e-02
-4.895581e-02
-3.315271e-02
-1.315541e-02
6.259372e-04
5.889534e-03
5.227827e-03
2.425948e-03
1.081973e-04
-8.490086e-04
-7.768054e-04
-3.122455e-04
5.434348e-05
9.999999e-01
9.999997e-01
1.000001e+00
1.000001e+00
9.999944e-01
9.999926e-01
1.000017e+00
1.000039e+00
9.999740e-01
9.998374e-01
9.998893e-01
1.000388e+00
1.000961e+00
1.000378e+00
9.976831e-01
9.943177e-01
9.950948e-01
1.005636e+00
1.026348e+00
1.046672e+00
1.044802e+00
9.953925e-01
8.822522e-01
7.088550e-01
5.000000e-01
2.930570e-01
1.233974e-01
1.168646e-02
-4.102096e-02
-4.933030e-02
-3.429855e-02
-1.433075e-02
-8.954592e-05
5.725611e-03
5.419848e-03
2.702947e-03
2.956104e-04
-8.019229e-04
-8.329768e-04
-2.478258e-04
1.000000e+00
9.999996e-01
1.000000e+00
1.000002e+00
1.000000e+00
9.999923e-01
9.999963e-01
1.000025e+00
1.000034e+00
9.999474e-01
9.998248e-01
9.999461e-01
1.000496e+00
1.000974e+00
1.000142e+00
9.972651e-01
9.941133e-01
9.955895e-01
1.006932e+00
1.027865e+00
1.047377e+00
1.043898e+00
9.929695e-01
8.793687e-01
7.069430e-01
5.000000e-01
2.948809e-01
1.260546e-01
1.392468e-02
-4.002337e-02
-4.964006e-02
-3.538118e-02
-1.547961e-02
-8.184410e-04
5.530247e-03
5.584682e-03
2.971545e-03
5.016786e-04
-8.099470e-04
-6.511990e-04
1.000000e+00
9.999999e-01
9.999995e-01
1.000001e+00
1.000002e+00
9.999981e-01
9.999914e-01
1.000001e+00
1.000031e+00
1.000023e+00
9.999197e-01
9.998205e-01
1.000011e+00
1.000594e+00
1.000959e+00
9.998842e-01
9.968658e-01
9.939665e-01
9.961341e-01
1.008215e+00
1.029300e+00
1.047986e+00
1.042963e+00
9.906107e-01
8.766026e-01
7.051191e-01
5.000000e-01
2.966240e-01
1.286108e-01
1.610638e-02
-3.901292e-02
-4.989079e-02
-3.640385e-02
-1.660158e-02
-1.557341e-03
5.306626e-03
5.715502e-03
3.266415e-03
6.116308e-04
-6.469644e-04
1.000000e+00
1.000000e+00
9.999997e-01
9.999997e-01
1.000001e+00
1.000002e+00
9.999963e-01
9.999924e-01
1.000009e+00
1.000037e+00
1.000012e+00
9.998977e-01
9.998296e-01
1.000086e+00
1.000683e+00
1.000919e+00
9.996113e-01
9.964887e-01
9.938742e-01
9.967211e-01
1.009482e+00
1.030657e+00
1.048510e+00
1.042002e+00
9.883135e-01
8.739454e-01
7.033760e-01
5.000000e-01
2.982927e-01
1.310729e-01
1.823394e-02
-3.799267e-02
-5.008748e-02
-3.736980e-02
-1.769705e-02
-2.298747e-03
5.038888e-03
5.860728e-03
3.527952e-03
4.228395e-04
1.000000e+00
1.000000e+00
1.000000e+00
9.999996e-01
1.000000e+00
1.000001e+00
9.999997e-01
9.999919e-01
9.999897e-01
1.000010e+00
1.000032e+00
9.999904e-01
9.998725e-01
9.998439e-01
1.000162e+00
1.000759e+00
1.000853e+00
9.993274e-01
9.961361e-01
9.938330e-01
9.973440e-01
1.010730e+00
1.031940e+00
1.048956e+00
1.041021e+00
9.860753e-01
8.713892e-01
7.017073e-01
5.000000e-01
2.998925e-01
1.334473e-01
2.030960e-02
-3.696525e-02
-5.023413e-02
-3.828472e-02
-1.875735e-02
-3.057573e-03
4.728656e-03
6.213779e-03
2.682239e-03
1.000000e+00
1.000000e+00
1.000000e+00
9.999997e-01
9.999997e-01
1.000002e+00
1.000006e+00
1.000007e+00
1.000003e+00
1.000006e+00
1.000028e+00
1.000038e+00
9.999769e-01
9.998573e-01
9.998690e-01
1.000242e+00
1.000820e+00
1.000765e+00
9.990359e-01
9.958093e-01
9.938394e-01
9.979971e-01
1.011955e+00
1.033153e+00
1.049330e+00
1.040023e+00
9.838936e-01
8.689271e-01
7.001075e-01
5.000000e-01
3.014285e-01
1.357396e-01
2.233507e-02
-3.593145e-02
-5.033843e-02
-3.914666e-02
-1.976685e-02
-3.966751e-03
4.970935e-03
4.900982e-03
1.000000e+00
1.000000e+00
1.000000e+00
1.000000e+00
9.999975e-01
9.999916e-01
9.999856e-01
9.999810e-01
9.999763e-01
9.999746e-01
9.999889e-01
1.000020e+00
1.000028e+00
9.999569e-01
9.998462e-01
9.999030e-01
1.000322e+00
1.000868e+00
1.000657e+00
9.987406e-01
9.955092e-01
9.938899e-01
9.986753e-01
1.013155e+00
1.034299e+00
1.049640e+00
1.039013e+00
9.817661e-01
8.665527e-01
6.985715e-01
5.000000e-01
3.029054e-01
1.379545e-01
2.431360e-02
-3.489355e-02
-5.041994e-02
-3.987623e-02
-2.103124e-02
-4.186820e-03
4.312446e-03
1.000000e+00
9.999995e-01
9.999988e-01
1.000002e+00
1.000013e+00
1.000030e+00
1.000044e+00
1.000050e+00
1.000043e+00
1.000023e+00
1.000004e+00
1.000006e+00
1.000026e+00
1.000019e+00
9.999349e-01
9.998380e-01
9.999425e-01
1.000401e+00
1.000901e+00
1.000532e+00
9.984444e-01
9.952363e-01
9.939813e-01
9.993741e-01
1.014331e+00
1.035381e+00
1.049891e+00
1.037993e+00
9.796904e-01
8.642604e-01
6.970946e-01
5.000000e-01
3.043271e-01
1.400963e-01
2.625919e-02
-3.389645e-02
-5.033509e-02
-4.082056e-02
-2.219204e-02
-2.321536e-03
9.999999e-01
1.000002e+00
1.000000e+00
9.999804e-01
9.999438e-01
9.999068e-01
9.998902e-01
9.999033e-01
9.999370e-01
9.999711e-01
9.999902e-01
9.999992e-01
1.000015e+00
1.000034e+00
1.000012e+00
9.999165e-01
9.998361e-01
9.999873e-01
1.000476e+00
1.000919e+00
1.000390e+00
9.981499e-01
9.949907e-01
9.941105e-01
1.000090e+00
1.015480e+00
1.036404e+00
1.050087e+00
1.036965e+00
9.776649e-01
8.620455e-01
6.956729e-01
5.000000e-01
3.056871e-01
1.421882e-01
2.810303e-02
-3.280963e-02
-5.006722e-02
-4.319022e-02
-1.615775e-02
9.999981e-01
9.999937e-01
1.000022e+00
1.000100e+00
1.000192e+00
1.000243e+00
1.000225e+00
1.000155e+00
1.000074e+00
1.000016e+00
9.999879e-01
9.999805e-01
9.999890e-01
1.000013e+00
1.000034e+00
1.000001e+00
9.999002e-01
9.998406e-01
1.000037e+00
1.000547e+00
1.000923e+00
1.000235e+00
9.978592e-01
9.947722e-01
9.942744e-01
1.000818e+00
1.016602e+00
1.037370e+00
1.050234e+00
1.035931e+00
9.756864e-01
8.599037e-01
6.943129e-01
5.000000e-01
3.070266e-01
1.441952e-01
2.970767e-02
-3.083638e-02
-5.373460e-02
-3.345842e-02
1.000012e+00
9.999911e-01
9.998417e-01
9.996168e-01
9.994628e-01
9.994751e-01
9.996276e-01
9.998191e-01
9.999612e-01
1.000026e+00
1.000032e+00
1.000012e+00
9.999936e-01
9.999934e-01
1.000015e+00
1.000030e+00
9.999879e-01
9.998851e-01
9.998507e-01
1.000091e+00
1.000613e+00
1.000912e+00
1.000068e+00
9.975741e-01
9.945802e-01
9.944697e-01
1.001557e+00
1.017697e+00
1.038285e+00
1.050338e+00
1.034894e+00
9.737408e-01
8.578118e-01
6.929734e-01
5.000000e-01
3.085032e-01
1.457568e-01
3.344356e-02
-3.430633e-02
-4.489554e-02
9.999628e-01
1.000194e+00
1.000727e+00
1.001176e+00
1.001224e+00
1.000895e+00
1.000442e+00
1.000100e+00
9.999470e-01
9.999335e-01
9.999717e-01
1.000002e+00
1.000007e+00
9.999991e-01
1.000001e+00
1.000020e+00
1.000027e+00
9.999731e-01
9.998718e-01
9.998656e-01
1.000147e+00
1.000672e+00
1.000888e+00
9.998918e-01
9.972971e-01
9.944153e-01
9.946934e-01
1.002299e+00
1.018757e+00
1.039147e+00
1.050420e+00
1.033896e+00
9.718970e-01
8.558048e-01
6.914968e-01
5.000000e-01
3.084714e-01
1.494216e-01
3.197357e-02
-3.272281e-02
9.999599e-01
9.987672e-01
9.974569e-01
9.971283e-01
9.978413e-01
9.989264e-01
9.997522e-01
1.000113e+00
1.000143e+00
1.000059e+00
9.999953e-01
9.999807e-01
9.999899e-01
9.999965e-01
9.999973e-01
1.000006e+00
1.000025e+00
1.000023e+00
9.999584e-01
9.998612e-01
9.998854e-01
1.000205e+00
1.000725e+00
1.000849e+00
9.997044e-01
9.970285e-01
9.942845e-01
9.949611e-01
1.003058e+00
1.019767e+00
1.039876e+00
1.050335e+00
1.032810e+00
9.702923e-01
8.542432e-01
6.915286e-01
5.000000e-01
3.105970e-01
1.524657e-01
7.797319e-03
1.001275e+00
1.005357e+00
1.006845e+00
1.005251e+00
1.002574e+00
1.000579e+00
9.997530e-01
9.997035e-01
9.998908e-01
1.000019e+00
1.000042e+00
1.000019e+00
9.999987e-01
9.999927e-01
9.999921e-01
9.999951e-01
1.000009e+00
1.000028e+00
1.000017e+00
9.999434e-01
9.998527e-01
9.999091e-01
1.000266e+00