# vtk DataFile Version 3.0
QUICK_DC(JC)
ASCII
DATASET STRUCTURED_GRID
DIMENSIONS 81 81 1
POINTS 6561 double
0.000000e+00 0.000000e+00 0.0
1.250000e-02 0.000000e+00 0.0
2.500000e-02 0.000000e+00 0.0
3.750000e-02 0.000000e+00 0.0
5.000000e-02 0.000000e+00 0.0
6.250000e-02 0.000000e+00 0.0
7.500000e-02 0.000000e+00 0.0
8.750000e-02 0.000000e+00 0.0
1.000000e-01 0.000000e+00 0.0
1.125000e-01 0.000000e+00 0.0
1.250000e-01 0.000000e+00 0.0
1.375000e-01 0.000000e+00 0.0
1.500000e-01 0.000000e+00 0.0
1.625000e-01 0.000000e+00 0.0
1.750000e-01 0.000000e+00 0.0
1.875000e-01 0.000000e+00 0.0
2.000000e-01 0.000000e+00 0.0
2.125000e-01 0.000000e+00 0.0
2.250000e-01 0.000000e+00 0.0
2.375000e-01 0.000000e+00 0.0
2.500000e-01 0.000000e+00 0.0
2.625000e-01 0.000000e+00 0.0
2.750000e-01 0.000000e+00 0.0
2.875000e-01 0.000000e+00 0.0
3.000000e-01 0.000000e+00 0.0
3.125000e-01 0.000000e+00 0.0
3.250000e-01 0.000000e+00 0.0
3.375000e-01 0.000000e+00 0.0
3.500000e-01 0.000000e+00 0.0
3.625000e-01 0.000000e+00 0.0
3.750000e-01 0.000000e+00 0.0
3.875000e-01 0.000000e+00 0.0
4.000000e-01 0.000000e+00 0.0
4.125000e-01 0.000000e+00 0.0
4.250000e-01 0.000000e+00 0.0
4.375000e-01 0.000000e+00 0.0
4.500000e-01 0.000000e+00 0.0
4.625000e-01 0.000000e+00 0.0
4.750000e-01 0.000000e+00 0.0
4.875000e-01 0.000000e+00 0.0
5.000000e-01 0.000000e+00 0.0
5.125000e-01 0.000000e+00 0.0
5.250000e-01 0.000000e+00 0.0
5.375000e-01 0.000000e+00 0.0
5.500000e-01 0.000000e+00 0.0
5.625000e-01 0.000000e+00 0.0
5.750000e-01 0.000000e+00 0.0
5.875000e-01 0.000000e+00 0.0
6.000000e-01 0.000000e+00 0.0
6.125000e-01 0.000000e+00 0.0
6.250000e-01 0.000000e+00 0.0
6.375000e-01 0.000000e+00 0.0
6.500000e-01 0.000000e+00 0.0
6.625000e-01 0.000000e+00 0.0
6.750000e-01 0.000000e+00 0.0
6.875000e-01 0.000000e+00 0.0
7.000000e-01 0.000000e+00 0.0
7.125000e-01 0.000000e+00 0.0
7.250000e-01 0.000000e+00 0.0
7.375000e-01 0.000000e+00 0.0
7.500000e-01 0.000000e+00 0.0
7.625000e-01 0.000000e+00 0.0
7.750000e-01 0.000000e+00 0.0
7.875000e-01 0.000000e+00 0.0
8.000000e-01 0.000000e+00 0.0
8.125000e-01 0.000000e+00 0.0
8.250000e-01 0.000000e+00 0.0
8.375000e-01 0.000000e+00 0.0
8.500000e-01 0.000000e+00 0.0
8.625000e-01 0.000000e+00 0.0
8.750000e-01 0.000000e+00 0.0
8.875000e-01 0.000000e+00 0.0
9.000000e-01 0.000000e+00 0.0
9.125000e-01 0.000000e+00 0.0
9.250000e-01 0.000000e+00 0.0
9.375000e-01 0.000000e+00 0.0
9.500000e-01 0.000000e+00 0.0
9.625000e-01 0.000000e+00 0.0
9.750000e-01 0.000000e+00 0.0
9.875000e-01 0.000000e+00 0.0
1.000000e+00 0.000000e+00 0.0
0.000000e+00 1.250000e-02 0.0
1.250000e-02 1.250000e-02 0.0
2.500000e-02 1.250000e-02 0.0
3.750000e-02 1.250000e-02 0.0
5.000000e-02 1.250000e-02 0.0
6.250000e-02 1.250000e-02 0.0
7.500000e-02 1.250000e-02 0.0
8.750000e-02 1.250000e-02 0.0
1.000000e-01 1.250000e-02 0.0
1.125000e-01 1.250000e-02 0.0
1.250000e-01 1.250000e-02 0.0
1.375000e-01 1.250000e-02 0.0
1.500000e-01 1.250000e-02 0.0
1.625000e-01 1.250000e-02 0.0
1.750000e-01 1.250000e-02 0.0
1.875000e-01 1.250000e-02 0.0
2.000000e-01 1.250000e-02 0.0
2.125000e-01 1.250000e-02 0.0
2.250000e-01 1.250000e-02 0.0
2.375000e-01 1.250000e-02 0.0
2.500000e-01 1.250000e-02 0.0
2.625000e-01 1.250000e-02 0.0
2.750000e-01 1.250000e-02 0.0
2.875000e-01 1.250000e-02 0.0
3.000000e-01 1.250000e-02 0.0
3.125000e-01 1.250000e-02 0.0
3.250000e-01 1.250000e-02 0.0
3.375000e-01 1.250000e-02 0.0
3.500000e-01 1.250000e-02 0.0
3.625000e-01 1.250000e-02 0.0
3.750000e-01 1.250000e-02 0.0
3.875000e-01 1.250000e-02 0.0
4.000000e-01 1.250000e-02 0.0
4.125000e-01 1.250000e-02 0.0
4.250000e-01 1.250000e-02 0.0
4.375000e-01 1.250000e-02 0.0
4.500000e-01 1.250000e-02 0.0
4.625000e-01 1.250000e-02 0.0
4.750000e-01 1.250000e-02 0.0
4.875000e-01 1.250000e-02 0.0
5.000000e-01 1.250000e-02 0.0
5.125000e-01 1.250000e-02 0.0
5.250000e-01 1.250000e-02 0.0
5.375000e-01 1.250000e-02 0.0
5.500000e-01 1.250000e-02 0.0
5.625000e-01 1.250000e-02 0.0
5.750000e-01 1.250000e-02 0.0
5.875000e-01 1.250000e-02 0.0
6.000000e-01 1.250000e-02 0.0
6.125000e-01 1.250000e-02 0.0
6.250000e-01 1.250000e-02 0.0
6.375000e-01 1.250000e-02 0.0
6.500000e-01 1.250000e-02 0.0
6.625000e-01 1.250000e-02 0.0
6.750000e-01 1.250000e-02 0.0
6.875000e-01 1.250000e-02 0.0
7.000000e-01 1.250000e-02 0.0
7.125000e-01 1.250000e-02 0.0
7.250000e-01 1.250000e-02 0.0
7.375000e-01 1.250000e-02 0.0
7.500000e-01 1.250000e-02 0.0
7.625000e-01 1.250000e-02 0.0
7.750000e-01 1.250000e-02 0.0
7.875000e-01 1.250000e-02 0.0
8.000000e-01 1.250000e-02 0.0
8.125000e-01 1.250000e-02 0.0
8.250000e-01 1.250000e-02 0.0
8.375000e-01 1.250000e-02 0.0
8.500000e-01 1.250000e-02 0.0
8.625000e-01 1.250000e-02 0.0
8.750000e-01 1.250000e-02 0.0
8.875000e-01 1.250000e-02 0.0
9.000000e-01 1.250000e-02 0.0
9.125000e-01 1.250000e-02 0.0
9.250000e-01 1.250000e-02 0.0
9.375000e-01 1.250000e-02 0.0
9.500000e-01 1.250000e-02 0.0
9.625000e-01 1.250000e-02 0.0
9.750000e-01 1.250000e-02 0.0
9.875000e-01 1.250000e-02 0.0
1.000000e+00 1.250000e-02 0.0
0.000000e+00 2.500000e-02 0.0
1.250000e-02 2.500000e-02 0.0
2.500000e-02 2.500000e-02 0.0
3.750000e-02 2.500000e-02 0.0
5.000000e-02 2.500000e-02 0.0
6.250000e-02 2.500000e-02 0.0
7.500000e-02 2.500000e-02 0.0
8.750000e-02 2.500000e-02 0.0
1.000000e-01 2.500000e-02 0.0
1.125000e-01 2.500000e-02 0.0
1.250000e-01 2.500000e-02 0.0
1.375000e-01 2.500000e-02 0.0
1.500000e-01 2.500000e-02 0.0
1.625000e-01 2.500000e-02 0.0
1.750000e-01 2.500000e-02 0.0
1.875000e-01 2.500000e-02 0.0
2.000000e-01 2.500000e-02 0.0
2.125000e-01 2.500000e-02 0.0
2.250000e-01 2.500000e-02 0.0
2.375000e-01 2.500000e-02 0.0
2.500000e-01 2.500000e-02 0.0
2.625000e-01 2.500000e-02 0.0
2.750000e-01 2.500000e-02 0.0
2.875000e-01 2.500000e-02 0.0
3.000000e-01 2.500000e-02 0.0
3.125000e-01 2.500000e-02 0.0
3.250000e-01 2.500000e-02 0.0
3.375000e-01 2.500000e-02 0.0
3.500000e-01 2.500000e-02 0.0
3.625000e-01 2.500000e-02 0.0
3.750000e-01 2.500000e-02 0.0
3.875000e-01 2.500000e-02 0.0
4.000000e-01 2.500000e-02 0.0
4.125000e-01 2.500000e-02 0.0
4.250000e-01 2.500000e-02 0.0
4.375000e-01 2.500000e-02 0.0
4.500000e-01 2.500000e-02 0.0
4.625000e-01 2.500000e-02 0.0
4.750000e-01 2.500000e-02 0.0
4.875000e-01 2.500000e-02 0.0
5.000000e-01 2.500000e-02 0.0
5.125000e-01 2.500000e-02 0.0
5.250000e-01 2.500000e-02 0.0
5.375000e-01 2.500000e-02 0.0
5.500000e-01 2.500000e-02 0.0
5.625000e-01 2.500000e-02 0.0
5.750000e-01 2.500000e-02 0.0
5.875000e-01 2.500000e-02 0.0
6.000000e-01 2.500000e-02 0.0
6.125000e-01 2.500000e-02 0.0
6.250000e-01 2.500000e-02 0.0
6.375000e-01 2.500000e-02 0.0
6.500000e-01 2.500000e-02 0.0
6.625000e-01 2.500000e-02 0.0
6.750000e-01 2.500000e-02 0.0
6.875000e-01 2.500000e-02 0.0
7.000000e-01 2.500000e-02 0.0
7.125000e-01 2.500000e-02 0.0
7.250000e-01 2.500000e-02 0.0
7.375000e-01 2.500000e-02 0.0
7.500000e-01 2.500000e-02 0.0
7.625000e-01 2.500000e-02 0.0
7.750000e-01 2.500000e-02 0.0
7.875000e-01 2.500000e-02 0.0
8.000000e-01 2.500000e-02 0.0
8.125000e-01 2.500000e-02 0.0
8.250000e-01 2.500000e-02 0.0
8.375000e-01 2.500000e-02 0.0
8.500000e-01 2.500000e-02 0.0
8.625000e-01 2.500000e-02 0.0
8.750000e-01 2.500000e-02 0.0
8.875000e-01 2.500000e-02 0.0
9.000000e-01 2.500000e-02 0.0
9.125000e-01 2.500000e-02 0.0
9.250000e-01 2.500000e-02 0.0
9.375000e-01 2.500000e-02 0.0
9.500000e-01 2.500000e-02 0.0
9.625000e-01 2.500000e-02 0.0
9.750000e-01 2.500000e-02 0.0
9.875000e-01 2.500000e-02 0.0
1.000000e+00 2.500000e-02 0.0
0.000000e+00 3.750000e-02 0.0
1.250000e-02 3.750000e-02 0.0
2.500000e-02 3.750000e-02 0.0
3.750000e-02 3.750000e-02 0.0
5.000000e-02 3.750000e-02 0.0
6.250000e-02 3.750000e-02 0.0
7.500000e-02 3.750000e-02 0.0
8.750000e-02 3.750000e-02 0.0
1.000000e-01 3.750000e-02 0.0
1.125000e-01 3.750000e-02 0.0
1.250000e-01 3.750000e-02 0.0
1.375000e-01 3.750000e-02 0.0
1.500000e-01 3.750000e-02 0.0
1.625000e-01 3.750000e-02 0.0
1.750000e-01 3.750000e-02 0.0
1.875000e-01 3.750000e-02 0.0
2.000000e-01 3.750000e-02 0.0
2.125000e-01 3.750000e-02 0.0
2.250000e-01 3.750000e-02 0.0
2.375000e-01 3.750000e-02 0.0
2.500000e-01 3.750000e-02 0.0
2.625000e-01 3.750000e-02 0.0
2.750000e-01 3.750000e-02 0.0
2.875000e-01 3.750000e-02 0.0
3.000000e-01 3.750000e-02 0.0
3.125000e-01 3.750000e-02 0.0
3.250000e-01 3.750000e-02 0.0
3.375000e-01 3.750000e-02 0.0
3.500000e-01 3.750000e-02 0.0
3.625000e-01 3.750000e-02 0.0
3.750000e-01 3.750000e-02 0.0
3.875000e-01 3.750000e-02 0.0
4.000000e-01 3.750000e-02 0.0
4.125000e-01 3.750000e-02 0.0
4.250000e-01 3.750000e-02 0.0
4.375000e-01 3.750000e-02 0.0
4.500000e-01 3.750000e-02 0.0
4.625000e-01 3.750000e-02 0.0
4.750000e-01 3.750000e-02 0.0
4.875000e-01 3.750000e-02 0.0
5.000000e-01 3.750000e-02 0.0
5.125000e-01 3.750000e-02 0.0
5.250000e-01 3.750000e-02 0.0
5.375000e-01 3.750000e-02 0.0
5.500000e-01 3.750000e-02 0.0
5.625000e-01 3.750000e-02 0.0
5.750000e-01 3.750000e-02 0.0
5.875000e-01 3.750000e-02 0.0
6.000000e-01 3.750000e-02 0.0
6.125000e-01 3.750000e-02 0.0
6.250000e-01 3.750000e-02 0.0
6.375000e-01 3.750000e-02 0.0
6.500000e-01 3.750000e-02 0.0
6.625000e-01 3.750000e-02 0.0
6.750000e-01 3.750000e-02 0.0
6.875000e-01 3.750000e-02 0.0
7.000000e-01 3.750000e-02 0.0
7.125000e-01 3.750000e-02 0.0
7.250000e-01 3.750000e-02 0.0
7.375000e-01 3.750000e-02 0.0
7.500000e-01 3.750000e-02 0.0
7.625000e-01 3.750000e-02 0.0
7.750000e-01 3.750000e-02 0.0
7.875000e-01 3.750000e-02 0.0
8.000000e-01 3.750000e-02 0.0
8.125000e-01 3.750000e-02 0.0
8.250000e-01 3.750000e-02 0.0
8.375000e-01 3.750000e-02 0.0
8.500000e-01 3.750000e-02 0.0
8.625000e-01 3.750000e-02 0.0
8.750000e-01 3.750000e-02 0.0
8.875000e-01 3.750000e-02 0.0
9.000000e-01 3.750000e-02 0.0
9.125000e-01 3.750000e-02 0.0
9.250000e-01 3.750000e-02 0.0
9.375000e-01 3.750000e-02 0.0
9.500000e-01 3.750000e-02 0.0
9.625000e-01 3.750000e-02 0.0
9.750000e-01 3.750000e-02 0.0
9.875000e-01 3.750000e-02 0.0
1.000000e+00 3.750000e-02 0.0
0.000000e+00 5.000000e-02 0.0
1.250000e-02 5.000000e-02 0.0
2.500000e-02 5.000000e-02 0.0
3.750000e-02 5.000000e-02 0.0
5.000000e-02 5.000000e-02 0.0
[...]
CELL_DATA 6400
SCALARS Temperature double 1
LOOKUP_TABLE default
5.000000e-01
6.188367e-02
-3.961221e-02
-2.603575e-02
-2.989149e-03
4.671615e-03
2.944565e-03
1.600567e-04
-7.648644e-04
-4.409185e-04
5.095031e-06
1.424324e-04
7.509957e-05
-6.115545e-06
-2.856463e-05
-1.375400e-05
2.163637e-06
6.006764e-06
2.632116e-06
-6.372039e-07
-1.304661e-06
-5.173805e-07
1.757036e-07
2.899573e-07
1.032284e-07
-4.699436e-08
-6.553045e-08
-2.070948e-08
1.236673e-08
1.499417e-08
4.140654e-09
-3.223374e-09
-3.462355e-09
-8.169081e-10
8.350509e-10
8.048524e-10
1.569071e-10
-2.154193e-10
-1.879744e-10
-2.870624e-11
5.539810e-11
4.403584e-11
4.786828e-12
-1.421068e-11
-1.033287e-11
-6.439055e-13
3.637471e-12
2.425397e-12
3.112343e-14
-9.292486e-13
-5.687992e-13
2.311420e-14
2.369458e-13
1.331118e-13
-1.320704e-14
-6.030550e-14
-3.104525e-14
5.103208e-15
1.531932e-14
7.205651e-15
-1.715643e-15
-3.883863e-15
-1.661604e-15
5.368699e-16
9.826161e-16
3.799042e-16
-1.608205e-16
-2.480511e-16
-8.589708e-17
4.677869e-17
6.246915e-17
1.913858e-17
-1.332183e-17
-1.569188e-17
-4.180681e-18
3.731505e-18
3.935937e-18
8.888472e-19
-1.096825e-18
-6.822774e-19
9.381163e-01
5.000000e-01
1.358050e-01
-2.328140e-02
-4.225380e-02
-1.681271e-02
1.921545e-03
5.544789e-03
2.382411e-03
-3.734027e-04
-9.332708e-04
-3.910130e-04
8.642754e-05
1.767046e-04
6.966663e-05
-2.092926e-05
-3.579000e-05
-1.302151e-05
5.158056e-06
7.568023e-06
2.502070e-06
-1.282910e-06
-1.647970e-06
-4.873176e-07
3.208989e-07
3.663922e-07
9.508136e-08
-8.057471e-08
-8.269524e-08
-1.836237e-08
2.028535e-08
1.887040e-08
3.456667e-09
-5.116394e-09
-4.340356e-09
-6.189936e-10
1.292034e-09
1.003871e-09
1.003401e-10
-3.265111e-10
-2.330193e-10
-1.274197e-11
8.253884e-11
5.419247e-11
3.329424e-13
-2.086426e-11
-1.260846e-11
5.862872e-13
5.272273e-12
2.930450e-12
-3.057380e-13
-1.331442e-12
-6.793984e-13
1.146697e-13
3.359413e-13
1.568766e-13
-3.792953e-14
-8.466710e-14
-3.601415e-14
1.174082e-14
2.130942e-14
8.202763e-15
-3.488655e-15
-5.354638e-15
-1.848727e-15
1.008287e-15
1.343024e-15
4.108514e-16
-2.856341e-16
-3.361410e-16
-8.958643e-17
7.969501e-17
8.393162e-17
1.902314e-17
-2.196967e-17
-2.089858e-17
-3.908233e-18
6.074020e-18
5.100360e-18
2.391764e-19
1.039612e+00
8.641950e-01
5.000000e-01
1.695997e-01
-6.242355e-03
-4.667022e-02
-2.668077e-02
-2.957329e-03
5.866269e-03
4.214989e-03
6.057317e-04
-9.777462e-04
-7.505676e-04
-1.073821e-04
1.889253e-04
1.446251e-04
1.831406e-05
-3.963058e-05
-2.931869e-05
-2.961360e-06
8.739041e-06
6.149599e-06
4.243211e-07
-1.990671e-06
-1.320665e-06
-4.198068e-08
4.636129e-07
2.883452e-07
-2.970660e-09
-1.096735e-07
-6.367980e-08
3.660129e-09
2.623928e-08
1.417014e-08
-1.563966e-09
-6.329807e-09
-3.167054e-09
5.385429e-10
1.536254e-09
7.089948e-10
-1.687972e-10
-3.745006e-10
-1.585634e-10
5.022491e-11
9.158020e-11
3.533260e-11
-1.446370e-11
-2.244210e-11
-7.821179e-12
4.073383e-12
5.506413e-12
1.713715e-12
-1.128802e-12
-1.351765e-12
-3.699492e-13
3.090016e-13
3.318037e-13
7.816248e-14
-8.377439e-14
-8.138663e-14
-1.599670e-14
2.253453e-14
1.993765e-14
3.115207e-15
-6.021794e-15
-4.875338e-15
-5.568411e-16
1.600088e-15
1.189329e-15
8.318159e-17
-4.230553e-16
-2.892735e-16
-6.594109e-18
1.113538e-16
7.009957e-17
-1.947537e-18
-2.920186e-17
-1.703116e-17
2.110692e-18
5.718837e-18
1.026036e+00
1.023281e+00
8.304003e-01
5.000000e-01
1.906250e-01
8.135619e-03
-4.699544e-02
-3.376551e-02
-8.140459e-03
4.913727e-03
5.466504e-03
1.754597e-03
-6.981701e-04
-9.852206e-04
-3.507679e-04
1.248052e-04
1.932548e-04
7.071851e-05
-2.581922e-05
-4.014528e-05
-1.449157e-05
5.833698e-06
8.674249e-06
3.008498e-06
-1.388674e-06
-1.927067e-06
-6.296042e-07
3.409328e-07
4.368048e-07
1.321366e-07
-8.526284e-08
-1.004825e-07
-2.766212e-08
2.156266e-08
2.336913e-08
5.741432e-09
-5.490220e-09
-5.479024e-09
-1.172434e-09
1.403596e-09
1.292154e-09
2.329630e-10
-3.596720e-10
-3.059919e-10
-4.422590e-11
9.227535e-11
7.265329e-11
7.738758e-12
-2.368310e-11
-1.727443e-11
-1.138710e-12
6.077473e-12
4.108321e-12
9.156091e-14
-1.558689e-12
-9.762862e-13
2.439633e-14
3.993999e-13
2.315739e-13
-1.776441e-14
-1.022246e-13
-5.476907e-14
7.335988e-15
2.612793e-14
1.290063e-14
-2.555702e-15
-6.667601e-15
-3.022352e-15
8.194668e-16
1.698508e-15
7.031735e-16
-2.501397e-16
-4.318376e-16
-1.621511e-16
7.390306e-17
1.095374e-16
3.709291e-17
-2.166044e-17
-2.767918e-17
-4.566292e-18
1.002989e+00
1.042254e+00
1.006242e+00
8.093750e-01
5.000000e-01
2.055563e-01
2.030220e-02
-4.544513e-02
-3.886002e-02
-1.307375e-02
3.215708e-03
6.155174e-03
2.873318e-03
-2.021798e-04
-1.071791e-03
-5.884817e-04
5.569530e-06
2.055774e-04
1.222457e-04
1.531938e-06
-4.235939e-05
-2.599686e-05
-3.751022e-07
9.184566e-06
5.644309e-06
2.058017e-08
-2.065253e-06
-1.245728e-06
2.026531e-08
4.767724e-07
2.783774e-07
-1.211485e-08
-1.122039e-07
-6.277611e-08
4.851419e-09
2.678456e-08
1.424596e-08
-1.671865e-09
-6.461897e-09
-3.245526e-09
5.324114e-10
1.571319e-09
7.407041e-10
-1.615522e-10
-3.843378e-10
-1.690030e-10
4.745995e-11
9.441115e-11
3.847313e-11
-1.362485e-11
-2.326248e-11
-8.719635e-12
3.844732e-12
5.743484e-12
1.962670e-12
-1.070573e-12
-1.419779e-12
-4.374188e-13
2.949489e-13
3.511434e-13
9.614798e-14
-8.055417e-14
-8.683547e-14
-2.072913e-14
2.183968e-14
2.145927e-14
4.347070e-15
-5.884008e-15
-5.296752e-15
-8.745130e-16
1.576556e-15
1.305149e-15
1.644124e-16
-4.203574e-16
-3.208614e-16
-2.725504e-17
1.115927e-16
7.927367e-17
2.441661e-19
-2.269722e-17
9.953284e-01
1.016813e+00
1.046670e+00
9.918644e-01
7.944437e-01
5.000000e-01
2.170431e-01
3.080290e-02
-4.296208e-02
-4.253284e-02
-1.758541e-02
1.097543e-03
6.366839e-03
3.865781e-03
4.211037e-04
-1.019054e-03
-7.877539e-04
-1.460243e-04
1.813288e-04
1.633245e-04
3.681491e-05
-3.541830e-05
-3.487543e-05
-8.539675e-06
7.446471e-06
7.650129e-06
1.919204e-06
-1.655200e-06
-1.715382e-06
-4.245175e-07
3.833539e-07
3.913775e-07
9.283213e-08
-9.148056e-08
-9.051439e-08
-2.006313e-08
2.230530e-08
2.115410e-08
4.271886e-09
-5.523105e-09
-4.983779e-09
-8.907929e-10
1.382704e-09
1.181256e-09
1.801016e-10
-3.488598e-10
-2.812132e-10
-3.468342e-11
8.849776e-11
6.714764e-11
6.136445e-12
-2.253343e-11
-1.606225e-11
-9.078230e-13
5.751496e-12
3.844992e-12
7.107376e-14
-1.470192e-12
-9.201616e-13
2.126422e-14
3.760846e-13
2.199353e-13
-1.513754e-14
-9.621937e-14
-5.245274e-14
6.265167e-15
2.460948e-14
1.246932e-14
-2.194712e-15
-6.289823e-15
-2.951452e-15
7.081904e-16
1.605939e-15
6.946849e-16
-2.175864e-16
-4.094035e-16
-1.628163e-16
6.581253e-17
1.046949e-16
2.202874e-17
9.970554e-01
9.980785e-01
1.026681e+00
1.046995e+00
9.796978e-01
7.829569e-01
5.000000e-01
2.263400e-01
4.002283e-02
-4.000472e-02
-4.516818e-02
-2.163972e-02
-1.239589e-03
6.194097e-03
4.690800e-03
1.105117e-03
-8.480502e-04
-9.315804e-04
-3.102745e-04
1.252677e-04
1.884280e-04
7.456809e-05
-2.039046e-05
-3.950920e-05
-1.721089e-05
3.692571e-06
8.575879e-06
3.933540e-06
-7.449025e-07
-1.916719e-06
-8.988641e-07
1.656373e-07
4.386574e-07
2.059595e-07
-3.977651e-08
-1.023023e-07
-4.733657e-08
1.007863e-08
2.421686e-08
1.090560e-08
-2.641279e-09
-5.800145e-09
-2.515721e-09
7.056694e-10
1.401973e-09
5.803192e-10
-1.904081e-10
-3.412953e-10
-1.336684e-10
5.159103e-11
8.353956e-11
3.069329e-11
-1.398954e-11
-2.053236e-11
-7.013026e-12
3.789132e-12
5.061577e-12
1.590944e-12
-1.024058e-12
-1.250337e-12
-3.573472e-13
2.760061e-13
3.092539e-13
7.918148e-14
-7.416664e-14
-7.653288e-14
-1.721963e-14
1.986790e-14
1.893893e-14
3.646964e-15
-5.305728e-15
-4.683706e-15
-7.427266e-16
1.412560e-15
1.156884e-15
1.422525e-16
-3.749072e-16
-2.875648e-16
-1.378774e-17
7.727090e-17
9.998399e-01
9.944552e-01
1.002957e+00
1.033766e+00
1.045445e+00
9.691971e-01
7.736600e-01
5.000000e-01
2.341276e-01
4.823219e-02
-3.681372e-02
-4.702927e-02
-2.525336e-02
-3.670580e-03
5.719211e-03
5.336686e-03
1.802739e-03
-5.829699e-04
-1.013371e-03
-4.718306e-04
4.431339e-05
1.951865e-04
1.102221e-04
8.080860e-07
-3.916843e-05
-2.510660e-05
-1.565773e-06
8.210461e-06
5.716845e-06
5.335522e-07
-1.790253e-06
-1.311123e-06
-1.431564e-07
4.036498e-07
3.033909e-07
3.473391e-08
-9.355487e-08
-7.080851e-08
-7.921942e-09
2.217114e-08
1.665052e-08
1.715538e-09
-5.348063e-09
-3.939832e-09
-3.507795e-10
1.308145e-09
9.368813e-10
6.613536e-11
-3.234701e-10
-2.236301e-10
-1.076467e-11
8.066014e-11
5.352244e-11
1.171634e-12
-2.024280e-11
-1.283094e-11
1.039832e-13
5.104830e-12
3.078103e-12
-1.291941e-13
-1.291930e-12
-7.382637e-13
5.906483e-14
3.277920e-13
1.768687e-13
-2.169830e-14
-8.331006e-14
-4.228649e-14
7.218087e-15
2.119525e-14
1.007953e-14
-2.268154e-15
-5.394792e-15
-2.392748e-15
6.867815e-16
1.372755e-15
5.665715e-16
-2.061454e-16
-3.515043e-16
-7.881013e-17
1.000765e+00
9.976176e-01
9.941337e-01
1.008140e+00
1.038860e+00
1.042962e+00
9.599772e-01
7.658724e-01
5.000000e-01
2.408136e-01
5.562534e-02
-3.352270e-02
-4.830108e-02
-2.846183e-02
-6.117177e-03
5.010534e-03
5.807157e-03
2.481793e-03
-2.470200e-04
-1.033012e-03
-6.195674e-04
-5.412206e-05
1.834593e-04
1.403333e-04
2.594741e-05
-3.381744e-05
-3.123419e-05
-7.692379e-06
6.546111e-06
6.994795e-06
2.005835e-06
-1.333679e-06
-1.587282e-06
-4.966156e-07
2.854122e-07
3.654318e-07
1.199466e-07
-6.386824e-08
-8.528013e-08
-2.858708e-08
1.485501e-08
2.014108e-08
6.757789e-09
-3.567406e-09
-4.805604e-09
-1.588014e-09
8.788182e-10
1.156413e-09
3.712002e-10
-2.207874e-10
-2.802308e-10
-8.628810e-11
5.629052e-11
6.829228e-11
1.992866e-11
-1.450620e-11
-1.671741e-11
-4.565888e-12
3.766849e-12
4.106409e-12
1.035465e-12
-9.832735e-13
-1.011255e-12
-2.317170e-13
2.575493e-13
2.494712e-13
5.093872e-14
-6.760048e-14
-6.160747e-14
-1.092615e-14
1.776244e-14
1.522020e-14
2.261788e-15
-4.668670e-15
-3.759207e-15
-4.436178e-16
1.226658e-15
9.352884e-16
4.488593e-17
-2.511773e-16
1.000441e+00
1.000373e+00
9.957850e-01
9.950863e-01
1.013074e+00
1.042533e+00
1.040005e+00
9.517678e-01
7.591864e-01
5.000000e-01
2.466611e-01
6.234602e-02
-3.020872e-02
-4.911684e-02
-3.130554e-02
-8.530467e-03
4.123273e-03
6.113551e-03
3.121076e-03
1.392522e-04
-9.941749e-04
-7.459561e-04
-1.630327e-04
1.545537e-04
1.625579e-04
5.282233e-05
-2.390784e-05
-3.492208e-05
-1.403690e-05
3.726822e-06
7.583522e-06
3.488826e-06
-5.895997e-07
-1.678083e-06
-8.447609e-07
9.583667e-08
3.789958e-07
2.025021e-07
-1.641758e-08
-8.728094e-08
-4.839595e-08
3.087085e-09
2.045576e-08
1.156673e-08
-6.631320e-10
-4.867831e-09
-2.768023e-09
1.639686e-10
1.173537e-09
6.634677e-10
-4.511827e-11
-2.860145e-10
-1.592531e-10
1.317195e-11
7.033850e-11
3.826401e-11
-3.934542e-12
-1.742601e-11
-9.197782e-12
1.178320e-12
4.342962e-12
2.210466e-12
-3.504988e-13
-1.087499e-12
-5.307420e-13
1.031879e-13
2.733225e-13
1.272173e-13
-3.004370e-14
-6.888749e-14
-3.041613e-14
8.654424e-15
1.739782e-14
7.246720e-15
-2.468598e-15
-4.399006e-15
-1.723675e-15
7.094617e-16
1.119278e-15
2.381680e-16
9.999949e-01
1.000933e+00
9.993943e-01
9.945335e-01
9.967843e-01
1.017585e+00
1.045168e+00
1.036814e+00
9.443747e-01
7.533389e-01
5.000000e-01
2.518494e-01
6.850322e-02
-2.691722e-02
-4.957466e-02
-3.382397e-02
-1.088022e-02
3.101456e-03
6.270535e-03
3.707247e-03
5.584406e-04
-9.025610e-04
-8.463297e-04
-2.762477e-04
1.106314e-04
1.755085e-04
7.944606e-05
-1.019706e-05
-3.579994e-05
-2.000591e-05
-3.950661e-09
7.389683e-06
4.814096e-06
3.689336e-07
-1.560478e-06
-1.141321e-06
-1.442275e-07
3.383684e-07
2.699428e-07
4.305589e-08
-7.536667e-08
-6.403616e-08
-1.159222e-08
1.722008e-08
1.526840e-08
2.959384e-09
-4.026869e-09
-3.661332e-09
-7.313176e-10
9.611530e-10
8.828797e-10
1.766246e-10
-2.334897e-10
-2.139767e-10
-4.187429e-11
5.756821e-11
5.208967e-11
9.759185e-12
-1.436865e-11
-1.272774e-11
-2.234321e-12
3.622153e-12
3.119313e-12
5.011503e-13
-9.203762e-13
-7.662645e-13
-1.095493e-13
2.353267e-13
1.885509e-13
2.312395e-14
-6.045921e-14
-4.644529e-14
-4.634223e-15
1.558928e-14
1.144553e-14
8.533598e-16
-4.030247e-15
-2.842720e-15
-2.485301e-17
8.071438e-16
9.998576e-01
1.000391e+00
1.000978e+00
9.982454e-01
9.938448e-01
9.989025e-01
1.021640e+00
1.047029e+00
1.033523e+00
9.376540e-01
7.481506e-01
5.000000e-01
2.565060e-01
7.418147e-02
-2.367517e-02
-4.974824e-02
-3.605346e-02
-1.314829e-02
1.980004e-03
6.293752e-03
4.232527e-03
9.962072e-04
-7.647779e-04
-9.182043e-04
-3.885869e-04
5.428393e-05
1.785742e-04
1.041446e-04
6.395840e-06
-3.375410e-05
-2.510265e-05
-4.348892e-06
6.400147e-06
5.842284e-06
1.452178e-06
-1.235416e-06
-1.348494e-06
-4.089759e-07
2.447797e-07
3.122054e-07
1.073768e-07
-5.005348e-08
-7.285361e-08
-2.723352e-08
1.060263e-08
1.716542e-08
6.779173e-09
-2.331385e-09
-4.084817e-09
-1.669462e-09
5.322131e-10
9.813044e-10
4.084330e-10
-1.258861e-10
-2.377884e-10
-9.948910e-11
3.073726e-11
5.806472e-11
2.415615e-11
-7.709511e-12
-1.427359e-11
-5.848946e-12
1.975943e-12
3.528830e-12
1.412349e-12
-5.149013e-13
-8.766136e-13
-3.400241e-13
1.358201e-13
2.186258e-13
8.157750e-14
-3.613441e-14
-5.469912e-14
-1.949028e-14
9.668316e-15
1.371687e-14
4.648416e-15
-2.634422e-15
-3.450349e-15
-6.150649e-16
9.999249e-01
9.999136e-01
1.000751e+00
1.000698e+00
9.971267e-01
9.936332e-01
1.001240e+00
1.025253e+00
1.048301e+00
1.030209e+00
9.314968e-01
7.434940e-01
5.000000e-01
2.607251e-01
7.944763e-02
-2.049836e-02
-4.969391e-02
-3.802654e-02
-1.532439e-02
7.865681e-04
6.198579e-03
4.693018e-03
1.440976e-03
-5.876514e-04
-9.607067e-04
-4.958643e-04
-1.175811e-05
1.717409e-04
1.255876e-04
2.489687e-05
-2.887438e-05
-2.894419e-05
-8.993021e-06
4.666767e-06
6.470146e-06
2.565286e-06
-7.235963e-07
-1.439483e-06
-6.712049e-07
1.052477e-07
3.224623e-07
1.689912e-07
-1.351007e-08
-7.311824e-08
-4.178369e-08
1.235142e-09
1.681811e-08
1.024609e-08
4.188762e-11
-3.925865e-09
-2.504445e-09
-6.526159e-11
9.296009e-10
6.118000e-10
2.403458e-11
-2.230656e-10
-1.495636e-10
-6.822199e-12
5.417489e-11
3.661122e-11
1.694153e-12
-1.329839e-11
-8.975162e-12
-3.779768e-13
3.294862e-12
2.203274e-12
7.430959e-14
-8.228801e-13
-5.414843e-13
-1.165590e-14
2.069002e-13
1.331830e-13
7.699352e-16
-5.231481e-14
-3.276868e-14
4.315252e-16
1.329149e-14
8.123707e-15
-6.117751e-16
-2.578439e-15
1.000006e+00
9.998233e-01
1.000107e+00
1.000985e+00
1.000202e+00
9.961342e-01
9.938059e-01
1.003671e+00
1.028462e+00
1.049117e+00
1.026917e+00
9.258185e-01
7.392749e-01
5.000000e-01
2.645779e-01
8.435550e-02
-1.739570e-02
-4.945535e-02
-3.977191e-02
-1.740345e-02
-4.569714e-04
5.999486e-03
5.087510e-03
1.883554e-03
-3.778141e-04
-9.741190e-04
-5.948147e-04
-8.481378e-05
1.554331e-04
1.427804e-04
4.435158e-05
-2.140175e-05
-3.126339e-05
-1.363032e-05
2.289792e-06
6.632245e-06
3.617218e-06
-6.038244e-08
-1.399261e-06
-9.051475e-07
-6.893480e-08
2.974110e-07
2.208361e-07
3.088138e-08
-6.412363e-08
-5.334476e-08
-9.912060e-09
1.407704e-08
1.285612e-08
2.822754e-09
-3.152625e-09
-3.103326e-09
-7.576235e-10
7.207794e-10
7.517811e-10
1.965115e-10
-1.681915e-10
-1.829257e-10
-4.987106e-11
4.001928e-11
4.471769e-11
1.246631e-11
-9.695241e-12
-1.098127e-11
-3.080951e-12
2.387132e-12
2.708030e-12
7.543773e-13
-5.961358e-13
-6.703395e-13
-1.831852e-13
1.506845e-13
1.664821e-13
4.412672e-14
-3.847447e-14
-4.145496e-14
-1.058717e-14
1.003458e-14
1.028428e-14
1.240187e-15
1.000029e+00
9.999303e-01
9.998111e-01
1.000351e+00
1.001072e+00
9.995789e-01
9.953092e-01
9.942808e-01
1.006117e+00
1.031306e+00
1.049575e+00
1.023675e+00
9.205524e-01
7.354221e-01
5.000000e-01
2.681196e-01
8.894900e-02
-1.437170e-02
-4.906690e-02
-4.131473e-02
-1.938378e-02
-1.733293e-03
5.709753e-03
5.416617e-03
2.316750e-03
-1.414762e-04
-9.595234e-04
-6.829862e-04
-1.623682e-04
1.303801e-04
1.550359e-04
6.387363e-05
-1.168127e-05
-3.190146e-05
-1.798183e-05
-5.979478e-07
6.299029e-06
4.526984e-06
7.093004e-07
-1.224076e-06
-1.088512e-06
-2.637929e-07
2.371447e-07
2.569767e-07
7.900703e-08
-4.615381e-08
-6.036695e-08
-2.167209e-08
9.074796e-09
1.420852e-08
5.688520e-09
-1.812146e-09
-3.362826e-09
-1.457191e-09
3.696297e-10
8.017414e-10
3.680142e-10
-7.750147e-11
-1.926839e-10
-9.215082e-11
1.681119e-11
4.668421e-11
2.295322e-11
-3.792400e-12
-1.139921e-11
-5.698152e-12
8.921156e-13
2.803695e-12
1.411411e-12
-2.186509e-13
-6.941531e-13
-3.490314e-13
5.559748e-14
1.728800e-13
8.618918e-14
-1.455097e-14
-4.329964e-14
-2.140506e-14
4.856961e-15
8.105201e-15
1.000014e+00
1.000021e+00
9.998554e-01
9.998752e-01
1.000588e+00
1.001019e+00
9.988949e-01
9.946633e-01
9.949895e-01
1.008530e+00
1.033824e+00
1.049748e+00
1.020498e+00
9.156445e-01
7.318804e-01
5.000000e-01
2.713942e-01
9.326445e-02
-1.142809e-02
-4.855587e-02
-4.267701e-02
-2.126595e-02
-3.028682e-03
5.341382e-03
5.682168e-03
2.735030e-03
1.156906e-04
-9.185343e-04
-7.586225e-04
-2.421376e-04
9.750923e-05
1.619351e-04
8.267360e-05
-1.224364e-07
-3.079524e-05
-2.180676e-05
-3.844938e-06
5.472716e-06
5.227553e-06
1.535610e-06
-9.201280e-07
-1.203767e-06
-4.641578e-07
1.447374e-07
2.730100e-07
1.264826e-07
-2.035609e-08
-6.177116e-08
-3.282036e-08
2.188047e-09
1.404207e-08
8.304821e-09
-1.932577e-11
-3.219908e-09
-2.074027e-09
-9.041548e-11
7.464008e-10
5.145871e-10
3.958637e-11
-1.750969e-10
-1.273206e-10
-1.285773e-11
4.158154e-11
3.148316e-11
3.709401e-12
-9.994293e-12
-7.789910e-12
-1.003307e-12
2.429921e-12
1.929943e-12
2.602830e-13
-5.971387e-13
-4.788957e-13
-6.547727e-14
1.481758e-13
1.190110e-13
1.618845e-14
-3.752290e-14
-2.913048e-14
-1.011679e-15
9.999978e-01
1.000036e+00
9.999817e-01
9.998067e-01
9.999944e-01
1.000788e+00
1.000848e+00
9.981973e-01
9.941928e-01
9.958767e-01
1.010880e+00
1.036053e+00
1.049694e+00
1.017396e+00
9.110510e-01
7.286058e-01
5.000000e-01
2.744367e-01
9.733226e-02
-8.564828e-03
-4.794419e-02
-4.387800e-02
-2.305197e-02
-4.332286e-03
4.905106e-03
5.886777e-03
3.134217e-03
3.885959e-04
-8.530976e-04
-8.205485e-04
-3.221005e-04
5.786268e-05
1.632855e-04
1.000735e-04
1.283284e-05
-2.796225e-05
-2.490821e-05
-7.292498e-06
4.182056e-06
5.667833e-06
2.367712e-06
-5.017968e-07
-1.238777e-06
-6.549454e-07
2.566148e-08
2.662579e-07
1.690538e-07
1.144372e-08
-5.700551e-08
-4.219633e-08
-6.019317e-09
1.225127e-08
1.036173e-08
2.060104e-09
-2.656332e-09
-2.526437e-09
-6.122521e-10
5.831181e-10
6.148551e-10
1.699954e-10
-1.299358e-10
-1.498075e-10
-4.541814e-11
2.944526e-11
3.660451e-11
1.184798e-11
-6.794432e-12
-8.977838e-12
-3.042194e-12
1.597344e-12
2.211171e-12
7.725509e-13
-3.825826e-13
-5.469206e-13
-1.945781e-13
9.322509e-14
1.359428e-13
4.898903e-14
-2.577215e-14
-2.455677e-14
9.999940e-01
1.000013e+00
1.000040e+00
9.999293e-01
9.997944e-01
1.000146e+00
1.000932e+00
1.000583e+00
9.975182e-01
9.938864e-01
9.968985e-01
1.013148e+00
1.038027e+00
1.049455e+00
1.014372e+00
9.067355e-01
7.255633e-01
5.000000e-01
2.772761e-01
1.011781e-01
-5.780727e-03
-4.724965e-02
-4.493454e-02
-2.474478e-02
-5.635526e-03
4.410468e-03
6.033533e-03
3.511235e-03
6.727322e-04
-7.653432e-04
-8.680660e-04
-4.005053e-04
1.253398e-05
1.590802e-04
1.155113e-04
2.673503e-05
-2.348513e-05
-2.713480e-05
-1.078385e-05
2.476701e-06
5.813169e-06
3.156895e-06
1.031928e-08
-1.186922e-06
-8.221736e-07
-1.128671e-07
2.357880e-07
2.029157e-07
4.695234e-08
-4.604620e-08
-4.880024e-08
-1.486194e-08
8.885024e-09
1.160235e-08
4.229496e-09
-1.697901e-09
-2.749259e-09
-1.140997e-09
3.215837e-10
6.523915e-10
2.986982e-10
-6.037823e-11
-1.554754e-10
-7.680999e-11
1.124300e-11
3.727326e-11
1.953666e-11
-2.080746e-12
-8.997088e-12
-4.935614e-12
3.850184e-13
2.187452e-12
1.241692e-12
-7.219732e-14
-5.356754e-13
-3.115593e-13
1.371619e-14
1.335006e-13
7.550442e-14
-7.451569e-15
9.999974e-01
9.999948e-01
1.000029e+00
1.000026e+00
9.998778e-01
9.998187e-01
1.000310e+00
1.001013e+00
1.000247e+00
9.968789e-01
9.937295e-01
9.980200e-01
1.015324e+00
1.039772e+00
1.049067e+00
1.011428e+00
9.026677e-01
7.227239e-01
5.000000e-01
2.799360e-01
1.048239e-01
-3.073886e-03
-4.648679e-02
-4.586142e-02
-2.634786e-02
-6.931636e-03
3.865909e-03
6.125787e-03
3.863896e-03
9.641487e-04
-6.574787e-04
-9.008616e-04
-4.758636e-04
-3.737839e-05
1.494599e-04
1.285385e-04
4.114549e-05
-1.749692e-05
-2.837956e-05
-1.417087e-05
4.217215e-07
5.644782e-06
3.858889e-06