# vtk DataFile Version 3.0
13.TVD_MUSCL
ASCII
DATASET STRUCTURED_GRID
DIMENSIONS 81 81 1
POINTS 6561 double
0.000000e+00 0.000000e+00 0.0
1.250000e-02 0.000000e+00 0.0
2.500000e-02 0.000000e+00 0.0
3.750000e-02 0.000000e+00 0.0
5.000000e-02 0.000000e+00 0.0
6.250000e-02 0.000000e+00 0.0
7.500000e-02 0.000000e+00 0.0
8.750000e-02 0.000000e+00 0.0
1.000000e-01 0.000000e+00 0.0
1.125000e-01 0.000000e+00 0.0
1.250000e-01 0.000000e+00 0.0
1.375000e-01 0.000000e+00 0.0
1.500000e-01 0.000000e+00 0.0
1.625000e-01 0.000000e+00 0.0
1.750000e-01 0.000000e+00 0.0
1.875000e-01 0.000000e+00 0.0
2.000000e-01 0.000000e+00 0.0
2.125000e-01 0.000000e+00 0.0
2.250000e-01 0.000000e+00 0.0
2.375000e-01 0.000000e+00 0.0
2.500000e-01 0.000000e+00 0.0
2.625000e-01 0.000000e+00 0.0
2.750000e-01 0.000000e+00 0.0
2.875000e-01 0.000000e+00 0.0
3.000000e-01 0.000000e+00 0.0
3.125000e-01 0.000000e+00 0.0
3.250000e-01 0.000000e+00 0.0
3.375000e-01 0.000000e+00 0.0
3.500000e-01 0.000000e+00 0.0
3.625000e-01 0.000000e+00 0.0
3.750000e-01 0.000000e+00 0.0
3.875000e-01 0.000000e+00 0.0
4.000000e-01 0.000000e+00 0.0
4.125000e-01 0.000000e+00 0.0
4.250000e-01 0.000000e+00 0.0
4.375000e-01 0.000000e+00 0.0
4.500000e-01 0.000000e+00 0.0
4.625000e-01 0.000000e+00 0.0
4.750000e-01 0.000000e+00 0.0
4.875000e-01 0.000000e+00 0.0
5.000000e-01 0.000000e+00 0.0
5.125000e-01 0.000000e+00 0.0
5.250000e-01 0.000000e+00 0.0
5.375000e-01 0.000000e+00 0.0
5.500000e-01 0.000000e+00 0.0
5.625000e-01 0.000000e+00 0.0
5.750000e-01 0.000000e+00 0.0
5.875000e-01 0.000000e+00 0.0
6.000000e-01 0.000000e+00 0.0
6.125000e-01 0.000000e+00 0.0
6.250000e-01 0.000000e+00 0.0
6.375000e-01 0.000000e+00 0.0
6.500000e-01 0.000000e+00 0.0
6.625000e-01 0.000000e+00 0.0
6.750000e-01 0.000000e+00 0.0
6.875000e-01 0.000000e+00 0.0
7.000000e-01 0.000000e+00 0.0
7.125000e-01 0.000000e+00 0.0
7.250000e-01 0.000000e+00 0.0
7.375000e-01 0.000000e+00 0.0
7.500000e-01 0.000000e+00 0.0
7.625000e-01 0.000000e+00 0.0
7.750000e-01 0.000000e+00 0.0
7.875000e-01 0.000000e+00 0.0
8.000000e-01 0.000000e+00 0.0
8.125000e-01 0.000000e+00 0.0
8.250000e-01 0.000000e+00 0.0
8.375000e-01 0.000000e+00 0.0
8.500000e-01 0.000000e+00 0.0
8.625000e-01 0.000000e+00 0.0
8.750000e-01 0.000000e+00 0.0
8.875000e-01 0.000000e+00 0.0
9.000000e-01 0.000000e+00 0.0
9.125000e-01 0.000000e+00 0.0
9.250000e-01 0.000000e+00 0.0
9.375000e-01 0.000000e+00 0.0
9.500000e-01 0.000000e+00 0.0
9.625000e-01 0.000000e+00 0.0
9.750000e-01 0.000000e+00 0.0
9.875000e-01 0.000000e+00 0.0
1.000000e+00 0.000000e+00 0.0
0.000000e+00 1.250000e-02 0.0
1.250000e-02 1.250000e-02 0.0
2.500000e-02 1.250000e-02 0.0
3.750000e-02 1.250000e-02 0.0
5.000000e-02 1.250000e-02 0.0
6.250000e-02 1.250000e-02 0.0
7.500000e-02 1.250000e-02 0.0
8.750000e-02 1.250000e-02 0.0
1.000000e-01 1.250000e-02 0.0
1.125000e-01 1.250000e-02 0.0
1.250000e-01 1.250000e-02 0.0
1.375000e-01 1.250000e-02 0.0
1.500000e-01 1.250000e-02 0.0
1.625000e-01 1.250000e-02 0.0
1.750000e-01 1.250000e-02 0.0
1.875000e-01 1.250000e-02 0.0
2.000000e-01 1.250000e-02 0.0
2.125000e-01 1.250000e-02 0.0
2.250000e-01 1.250000e-02 0.0
2.375000e-01 1.250000e-02 0.0
2.500000e-01 1.250000e-02 0.0
2.625000e-01 1.250000e-02 0.0
2.750000e-01 1.250000e-02 0.0
2.875000e-01 1.250000e-02 0.0
3.000000e-01 1.250000e-02 0.0
3.125000e-01 1.250000e-02 0.0
3.250000e-01 1.250000e-02 0.0
3.375000e-01 1.250000e-02 0.0
3.500000e-01 1.250000e-02 0.0
3.625000e-01 1.250000e-02 0.0
3.750000e-01 1.250000e-02 0.0
3.875000e-01 1.250000e-02 0.0
4.000000e-01 1.250000e-02 0.0
4.125000e-01 1.250000e-02 0.0
4.250000e-01 1.250000e-02 0.0
4.375000e-01 1.250000e-02 0.0
4.500000e-01 1.250000e-02 0.0
4.625000e-01 1.250000e-02 0.0
4.750000e-01 1.250000e-02 0.0
4.875000e-01 1.250000e-02 0.0
5.000000e-01 1.250000e-02 0.0
5.125000e-01 1.250000e-02 0.0
5.250000e-01 1.250000e-02 0.0
5.375000e-01 1.250000e-02 0.0
5.500000e-01 1.250000e-02 0.0
5.625000e-01 1.250000e-02 0.0
5.750000e-01 1.250000e-02 0.0
5.875000e-01 1.250000e-02 0.0
6.000000e-01 1.250000e-02 0.0
6.125000e-01 1.250000e-02 0.0
6.250000e-01 1.250000e-02 0.0
6.375000e-01 1.250000e-02 0.0
6.500000e-01 1.250000e-02 0.0
6.625000e-01 1.250000e-02 0.0
6.750000e-01 1.250000e-02 0.0
6.875000e-01 1.250000e-02 0.0
7.000000e-01 1.250000e-02 0.0
7.125000e-01 1.250000e-02 0.0
7.250000e-01 1.250000e-02 0.0
7.375000e-01 1.250000e-02 0.0
7.500000e-01 1.250000e-02 0.0
7.625000e-01 1.250000e-02 0.0
7.750000e-01 1.250000e-02 0.0
7.875000e-01 1.250000e-02 0.0
8.000000e-01 1.250000e-02 0.0
8.125000e-01 1.250000e-02 0.0
8.250000e-01 1.250000e-02 0.0
8.375000e-01 1.250000e-02 0.0
8.500000e-01 1.250000e-02 0.0
8.625000e-01 1.250000e-02 0.0
8.750000e-01 1.250000e-02 0.0
8.875000e-01 1.250000e-02 0.0
9.000000e-01 1.250000e-02 0.0
9.125000e-01 1.250000e-02 0.0
9.250000e-01 1.250000e-02 0.0
9.375000e-01 1.250000e-02 0.0
9.500000e-01 1.250000e-02 0.0
9.625000e-01 1.250000e-02 0.0
9.750000e-01 1.250000e-02 0.0
9.875000e-01 1.250000e-02 0.0
1.000000e+00 1.250000e-02 0.0
0.000000e+00 2.500000e-02 0.0
1.250000e-02 2.500000e-02 0.0
2.500000e-02 2.500000e-02 0.0
3.750000e-02 2.500000e-02 0.0
5.000000e-02 2.500000e-02 0.0
6.250000e-02 2.500000e-02 0.0
7.500000e-02 2.500000e-02 0.0
8.750000e-02 2.500000e-02 0.0
1.000000e-01 2.500000e-02 0.0
1.125000e-01 2.500000e-02 0.0
1.250000e-01 2.500000e-02 0.0
1.375000e-01 2.500000e-02 0.0
1.500000e-01 2.500000e-02 0.0
1.625000e-01 2.500000e-02 0.0
1.750000e-01 2.500000e-02 0.0
1.875000e-01 2.500000e-02 0.0
2.000000e-01 2.500000e-02 0.0
2.125000e-01 2.500000e-02 0.0
2.250000e-01 2.500000e-02 0.0
2.375000e-01 2.500000e-02 0.0
2.500000e-01 2.500000e-02 0.0
2.625000e-01 2.500000e-02 0.0
2.750000e-01 2.500000e-02 0.0
2.875000e-01 2.500000e-02 0.0
3.000000e-01 2.500000e-02 0.0
3.125000e-01 2.500000e-02 0.0
3.250000e-01 2.500000e-02 0.0
3.375000e-01 2.500000e-02 0.0
3.500000e-01 2.500000e-02 0.0
3.625000e-01 2.500000e-02 0.0
3.750000e-01 2.500000e-02 0.0
3.875000e-01 2.500000e-02 0.0
4.000000e-01 2.500000e-02 0.0
4.125000e-01 2.500000e-02 0.0
4.250000e-01 2.500000e-02 0.0
4.375000e-01 2.500000e-02 0.0
4.500000e-01 2.500000e-02 0.0
4.625000e-01 2.500000e-02 0.0
4.750000e-01 2.500000e-02 0.0
4.875000e-01 2.500000e-02 0.0
5.000000e-01 2.500000e-02 0.0
5.125000e-01 2.500000e-02 0.0
5.250000e-01 2.500000e-02 0.0
5.375000e-01 2.500000e-02 0.0
5.500000e-01 2.500000e-02 0.0
5.625000e-01 2.500000e-02 0.0
5.750000e-01 2.500000e-02 0.0
5.875000e-01 2.500000e-02 0.0
6.000000e-01 2.500000e-02 0.0
6.125000e-01 2.500000e-02 0.0
6.250000e-01 2.500000e-02 0.0
6.375000e-01 2.500000e-02 0.0
6.500000e-01 2.500000e-02 0.0
6.625000e-01 2.500000e-02 0.0
6.750000e-01 2.500000e-02 0.0
6.875000e-01 2.500000e-02 0.0
7.000000e-01 2.500000e-02 0.0
7.125000e-01 2.500000e-02 0.0
7.250000e-01 2.500000e-02 0.0
7.375000e-01 2.500000e-02 0.0
7.500000e-01 2.500000e-02 0.0
7.625000e-01 2.500000e-02 0.0
7.750000e-01 2.500000e-02 0.0
7.875000e-01 2.500000e-02 0.0
8.000000e-01 2.500000e-02 0.0
8.125000e-01 2.500000e-02 0.0
8.250000e-01 2.500000e-02 0.0
8.375000e-01 2.500000e-02 0.0
8.500000e-01 2.500000e-02 0.0
8.625000e-01 2.500000e-02 0.0
8.750000e-01 2.500000e-02 0.0
8.875000e-01 2.500000e-02 0.0
9.000000e-01 2.500000e-02 0.0
9.125000e-01 2.500000e-02 0.0
9.250000e-01 2.500000e-02 0.0
9.375000e-01 2.500000e-02 0.0
9.500000e-01 2.500000e-02 0.0
9.625000e-01 2.500000e-02 0.0
9.750000e-01 2.500000e-02 0.0
9.875000e-01 2.500000e-02 0.0
1.000000e+00 2.500000e-02 0.0
0.000000e+00 3.750000e-02 0.0
1.250000e-02 3.750000e-02 0.0
2.500000e-02 3.750000e-02 0.0
3.750000e-02 3.750000e-02 0.0
5.000000e-02 3.750000e-02 0.0
6.250000e-02 3.750000e-02 0.0
7.500000e-02 3.750000e-02 0.0
8.750000e-02 3.750000e-02 0.0
1.000000e-01 3.750000e-02 0.0
1.125000e-01 3.750000e-02 0.0
1.250000e-01 3.750000e-02 0.0
1.375000e-01 3.750000e-02 0.0
1.500000e-01 3.750000e-02 0.0
1.625000e-01 3.750000e-02 0.0
1.750000e-01 3.750000e-02 0.0
1.875000e-01 3.750000e-02 0.0
2.000000e-01 3.750000e-02 0.0
2.125000e-01 3.750000e-02 0.0
2.250000e-01 3.750000e-02 0.0
2.375000e-01 3.750000e-02 0.0
2.500000e-01 3.750000e-02 0.0
2.625000e-01 3.750000e-02 0.0
2.750000e-01 3.750000e-02 0.0
2.875000e-01 3.750000e-02 0.0
3.000000e-01 3.750000e-02 0.0
3.125000e-01 3.750000e-02 0.0
3.250000e-01 3.750000e-02 0.0
3.375000e-01 3.750000e-02 0.0
3.500000e-01 3.750000e-02 0.0
3.625000e-01 3.750000e-02 0.0
3.750000e-01 3.750000e-02 0.0
3.875000e-01 3.750000e-02 0.0
4.000000e-01 3.750000e-02 0.0
4.125000e-01 3.750000e-02 0.0
4.250000e-01 3.750000e-02 0.0
4.375000e-01 3.750000e-02 0.0
4.500000e-01 3.750000e-02 0.0
4.625000e-01 3.750000e-02 0.0
4.750000e-01 3.750000e-02 0.0
4.875000e-01 3.750000e-02 0.0
5.000000e-01 3.750000e-02 0.0
5.125000e-01 3.750000e-02 0.0
5.250000e-01 3.750000e-02 0.0
5.375000e-01 3.750000e-02 0.0
5.500000e-01 3.750000e-02 0.0
5.625000e-01 3.750000e-02 0.0
5.750000e-01 3.750000e-02 0.0
5.875000e-01 3.750000e-02 0.0
6.000000e-01 3.750000e-02 0.0
6.125000e-01 3.750000e-02 0.0
6.250000e-01 3.750000e-02 0.0
6.375000e-01 3.750000e-02 0.0
6.500000e-01 3.750000e-02 0.0
6.625000e-01 3.750000e-02 0.0
6.750000e-01 3.750000e-02 0.0
6.875000e-01 3.750000e-02 0.0
7.000000e-01 3.750000e-02 0.0
7.125000e-01 3.750000e-02 0.0
7.250000e-01 3.750000e-02 0.0
7.375000e-01 3.750000e-02 0.0
7.500000e-01 3.750000e-02 0.0
7.625000e-01 3.750000e-02 0.0
7.750000e-01 3.750000e-02 0.0
7.875000e-01 3.750000e-02 0.0
8.000000e-01 3.750000e-02 0.0
8.125000e-01 3.750000e-02 0.0
8.250000e-01 3.750000e-02 0.0
8.375000e-01 3.750000e-02 0.0
8.500000e-01 3.750000e-02 0.0
8.625000e-01 3.750000e-02 0.0
8.750000e-01 3.750000e-02 0.0
8.875000e-01 3.750000e-02 0.0
9.000000e-01 3.750000e-02 0.0
9.125000e-01 3.750000e-02 0.0
9.250000e-01 3.750000e-02 0.0
9.375000e-01 3.750000e-02 0.0
9.500000e-01 3.750000e-02 0.0
9.625000e-01 3.750000e-02 0.0
9.750000e-01 3.750000e-02 0.0
9.875000e-01 3.750000e-02 0.0
1.000000e+00 3.750000e-02 0.0
0.000000e+00 5.000000e-02 0.0
1.250000e-02 5.000000e-02 0.0
2.500000e-02 5.000000e-02 0.0
3.750000e-02 5.000000e-02 0.0
5.000000e-02 5.000000e-02 0.0
[...]
CELL_DATA 6400
SCALARS Temperature double 1
LOOKUP_TABLE default
5.000000e-01
6.904713e-02
1.037199e-02
2.462782e-03
5.114640e-04
1.199633e-04
2.785596e-05
6.473559e-06
1.525673e-06
3.588688e-07
8.426179e-08
1.981244e-08
4.662895e-09
1.097387e-09
2.580651e-10
6.065103e-11
1.424728e-11
3.345208e-12
7.849513e-13
1.840622e-13
4.312188e-14
1.009351e-14
2.366784e-15
5.533154e-16
1.286341e-16
2.987900e-17
7.348952e-18
1.727853e-18
2.336423e-19
1.222965e-19
1.310201e-19
1.339363e-19
1.426536e-19
1.457433e-19
1.467855e-19
1.472042e-19
1.473742e-19
1.474336e-19
1.474770e-19
1.297674e-19
1.268641e-19
1.289016e-19
1.295768e-19
1.315899e-19
1.322682e-19
1.340728e-19
1.352739e-19
1.366354e-19
1.384854e-19
1.407023e-19
1.427269e-19
1.443959e-19
1.460549e-19
1.481633e-19
1.509479e-19
1.541637e-19
1.574097e-19
1.605807e-19
1.632673e-19
1.645088e-19
1.649386e-19
1.651094e-19
1.259638e-19
6.291313e-20
2.132896e-20
4.008932e-21
1.117398e-21
-1.414495e-22
-2.001105e-21
-4.383215e-21
-6.604183e-21
-8.001077e-21
-8.755801e-21
-9.150406e-21
-9.286044e-21
-9.332256e-21
-9.348578e-21
-9.354787e-21
-9.356835e-21
-7.001227e-21
9.309529e-01
5.000000e-01
1.854707e-01
4.948745e-02
1.007640e-02
2.427382e-03
5.624901e-04
1.309088e-04
3.093827e-05
7.273149e-06
1.707299e-06
4.015898e-07
9.453340e-08
2.224621e-08
5.230363e-09
1.229039e-09
2.886678e-10
6.776716e-11
1.589835e-11
3.727181e-12
8.730305e-13
2.043158e-13
4.789679e-14
1.119524e-14
2.603410e-15
6.051963e-16
1.477338e-16
3.503621e-17
5.100147e-18
2.183429e-18
2.296694e-18
2.334754e-18
2.448086e-18
2.485982e-18
2.498959e-18
2.503381e-18
2.513001e-18
2.516470e-18
2.517884e-18
2.156039e-18
2.017199e-18
2.059118e-18
2.073604e-18
2.116621e-18
2.131711e-18
2.169081e-18
2.189965e-18
2.211349e-18
2.239568e-18
2.275740e-18
2.308927e-18
2.334280e-18
2.358141e-18
2.389076e-18
2.432644e-18
2.484560e-18
2.539362e-18
2.595298e-18
2.649275e-18
2.700038e-18
2.721154e-18
2.728215e-18
2.229541e-18
1.201388e-18
4.376868e-19
9.524793e-20
2.240935e-20
-5.366586e-21
-3.691661e-20
-7.376270e-20
-1.070103e-19
-1.259676e-19
-1.358145e-19
-1.447575e-19
-1.484877e-19
-1.497346e-19
-1.501963e-19
-1.503634e-19
-1.504194e-19
-1.123261e-19
9.896280e-01
8.145293e-01
5.000000e-01
2.329100e-01
8.031522e-02
2.113631e-02
4.807795e-03
1.125398e-03
2.678493e-04
6.277692e-05
1.473121e-05
3.469391e-06
8.169720e-07
1.921860e-07
4.515780e-08
1.060686e-08
2.490391e-09
5.843883e-10
1.370262e-10
3.210630e-11
7.516693e-12
1.758408e-12
4.119505e-13
9.624294e-14
2.239399e-14
5.214143e-15
1.253262e-15
3.006561e-16
5.148815e-17
1.415791e-17
1.444853e-17
1.454579e-17
1.458115e-17
1.459227e-17
1.463192e-17
1.388791e-17
1.329367e-17
1.329375e-17
1.329400e-17
1.163769e-17
1.163821e-17
8.889805e-18
8.614568e-18
8.801985e-18
8.864106e-18
8.971632e-18
9.007575e-18
9.037085e-18
9.090966e-18
9.198691e-18
9.365036e-18
9.437762e-18
9.483426e-18
9.573451e-18
9.788732e-18
9.980334e-18
1.016197e-17
1.043822e-17
1.081840e-17
1.122486e-17
1.218787e-17
1.244327e-17
1.244269e-17
8.752088e-18
3.785481e-18
1.072836e-18
2.135304e-19
-3.821503e-20
-2.198461e-19
-3.352356e-19
-4.263853e-19
-4.799217e-19
-5.170064e-19
-5.516124e-19
-5.751358e-19
-5.836518e-19
-5.865508e-19
-5.898547e-19
-5.912524e-19
-4.398555e-19
9.975372e-01
9.505126e-01
7.670900e-01
5.000000e-01
2.630203e-01
1.078907e-01
3.418043e-02
8.195690e-03
1.967745e-03
4.566491e-04
1.073165e-04
2.534061e-05
5.966078e-06
1.402018e-06
3.290931e-07
7.726068e-08
1.813075e-08
4.251422e-09
9.959962e-10
2.331721e-10
5.455110e-11
1.275375e-11
2.985126e-12
6.969867e-13
1.622569e-13
3.783263e-14
8.960226e-15
2.148227e-15
4.359800e-16
7.592180e-17
5.841855e-17
6.415914e-17
5.397754e-17
4.710107e-17
5.103633e-17
4.804192e-17
4.672596e-17
4.674174e-17
4.675865e-17
4.199897e-17
4.163149e-17
2.938057e-17
2.877045e-17
2.918302e-17
2.929241e-17
2.941991e-17
2.946364e-17
2.951231e-17
2.964308e-17
2.997025e-17
3.053266e-17
3.074661e-17
3.085760e-17
3.112570e-17
3.185424e-17
3.246563e-17
3.302874e-17
3.396456e-17
3.532404e-17
3.679803e-17
4.098205e-17
4.233783e-17
4.279403e-17
4.113949e-17
2.412056e-17
8.691266e-18
1.897362e-18
2.665869e-20
-7.660397e-19
-1.119700e-18
-1.384269e-18
-1.528707e-18
-1.634365e-18
-1.740278e-18
-1.826317e-18
-1.869074e-18
-1.892376e-18
-1.907893e-18
-1.913448e-18
-1.422248e-18
9.994885e-01
9.899236e-01
9.196848e-01
7.369797e-01
5.000000e-01
2.830628e-01
1.314030e-01
4.727975e-02
1.355064e-02
3.073218e-03
7.295495e-04
1.728786e-04
4.060243e-05
9.522245e-06
2.232435e-06
5.239656e-07
1.228688e-07
2.877846e-08
6.733747e-09
1.574775e-09
3.681132e-10
8.600195e-11
2.010723e-11
4.691600e-12
1.092377e-12
2.548561e-13
5.977113e-14
1.418889e-14
3.188580e-15
5.622914e-16
2.130007e-16
2.130026e-16
1.721672e-16
1.446106e-16
1.602383e-16
1.503699e-16
1.471161e-16
1.471521e-16
1.471514e-16
1.392526e-16
1.316362e-16
9.070447e-17
8.930701e-17
9.041521e-17
9.058748e-17
9.074386e-17
9.081692e-17
9.093788e-17
9.129775e-17
9.227567e-17
9.403079e-17
9.467186e-17
9.497090e-17
9.578009e-17
9.804866e-17
9.991076e-17
1.016198e-16
1.045446e-16
1.088509e-16
1.135100e-16
1.274730e-16
1.322424e-16
1.338531e-16
1.351758e-16
1.148799e-16
5.553119e-17
1.572196e-17
1.543282e-18
-9.372339e-19
-3.107784e-18
-4.257934e-18
-4.674909e-18
-4.986314e-18
-5.306201e-18
-5.579602e-18
-5.725300e-18
-5.809811e-18
-5.861912e-18
-5.879854e-18
-4.368798e-18
9.998800e-01
9.975726e-01
9.788637e-01
8.921093e-01
7.169372e-01
5.000000e-01
2.990306e-01
1.505616e-01
6.130055e-02
1.961421e-02
4.825746e-03
1.141666e-03
2.661080e-04
6.227185e-05
1.459057e-05
3.425621e-06
8.022393e-07
1.875777e-07
4.382377e-08
1.023783e-08
2.391178e-09
5.582173e-10
1.303517e-10
3.039174e-11
7.074786e-12
1.650136e-12
3.850881e-13
9.037516e-14
2.120950e-14
4.282014e-15
8.614454e-16
6.232009e-16
4.394029e-16
4.371238e-16
4.878085e-16
4.574666e-16
4.575121e-16
4.499657e-16
4.500062e-16
4.305218e-16
4.005165e-16
2.746688e-16
2.711137e-16
2.741725e-16
2.744881e-16
2.747190e-16
2.748507e-16
2.751996e-16
2.762322e-16
2.791828e-16
2.845194e-16
2.864252e-16
2.872956e-16
2.897360e-16
2.966264e-16
3.022206e-16
3.073798e-16
3.163019e-16
3.293978e-16
3.399556e-16
3.601987e-16
3.789309e-16
4.069566e-16
4.173332e-16
4.172871e-16
2.843238e-16
1.034212e-16
1.717127e-17
-1.151203e-19
-8.077533e-18
-1.202678e-17
-1.390485e-17
-1.504116e-17
-1.600191e-17
-1.683802e-17
-1.729208e-17
-1.756387e-17
-1.772250e-17
-1.777802e-17
-1.320710e-17
9.999721e-01
9.994375e-01
9.951922e-01
9.658196e-01
8.685970e-01
7.009694e-01
5.000000e-01
3.116338e-01
1.668149e-01
7.464008e-02
2.624605e-02
7.384863e-03
1.698486e-03
3.981361e-04
9.338696e-05
2.194418e-05
5.123949e-06
1.195255e-06
2.788338e-07
6.509084e-08
1.519206e-08
3.543490e-09
8.263562e-10
1.924958e-10
4.478742e-11
1.043751e-11
2.430841e-12
5.657797e-13
1.340916e-13
2.959844e-14
5.610469e-15
1.911430e-15
1.241407e-15
1.315115e-15
1.339735e-15
1.318910e-15
1.320155e-15
1.285542e-15
1.280860e-15
1.302303e-15
1.122546e-15
8.259602e-16
8.260098e-16
8.260700e-16
8.262868e-16
8.265862e-16
8.269336e-16
8.279672e-16
8.310159e-16
8.398268e-16
8.559413e-16
8.616275e-16
8.642613e-16
8.715224e-16
8.922962e-16
9.091066e-16
9.245798e-16
9.515654e-16
9.910004e-16
1.019379e-15
1.058301e-15
1.103105e-15
1.177251e-15
1.263972e-15
1.309170e-15
1.175688e-15
5.606853e-16
1.440157e-16
1.297734e-17
-1.033875e-17
-3.235426e-17
-4.129668e-17
-4.520537e-17
-4.808543e-17
-5.060950e-17
-5.198741e-17
-5.282320e-17
-5.329099e-17
-5.347078e-17
-3.972044e-17
9.999935e-01
9.998691e-01
9.988746e-01
9.918043e-01
9.527202e-01
8.494384e-01
6.883662e-01
5.000000e-01
3.218059e-01
1.809878e-01
8.692191e-02
3.389809e-02
1.057916e-02
2.515825e-03
5.911114e-04
1.388864e-04
3.222208e-05
7.500317e-06
1.748520e-06
4.081542e-07
9.519617e-08
2.217880e-08
5.164531e-09
1.201846e-09
2.794500e-10
6.505551e-11
1.513866e-11
3.507908e-12
8.283870e-13
1.908914e-13
3.906159e-14
8.857387e-15
3.656142e-15
3.669389e-15
3.895401e-15
3.894075e-15
3.907843e-15
3.717850e-15
3.704991e-15
3.865505e-15
2.857466e-15
2.419807e-15
2.421934e-15
2.422651e-15
2.424495e-15
2.425514e-15
2.428000e-15
2.435061e-15
2.456777e-15
2.521101e-15
2.570020e-15
2.587049e-15
2.594899e-15
2.616640e-15
2.679275e-15
2.729888e-15
2.776402e-15
2.857218e-15
2.975730e-15
3.057393e-15
3.152573e-15
3.274941e-15
3.441726e-15
3.744493e-15
3.963091e-15
3.984367e-15
2.613659e-15
8.717503e-16
1.163046e-16
-7.959605e-18
-8.361643e-17
-1.197100e-16
-1.349795e-16
-1.443292e-16
-1.519143e-16
-1.560793e-16
-1.585878e-16
-1.599963e-16
-1.605335e-16
-1.192415e-16
9.999985e-01
9.999691e-01
9.997322e-01
9.980323e-01
9.864494e-01
9.386995e-01
8.331851e-01
6.781941e-01
5.000000e-01
3.304236e-01
1.934174e-01
9.819469e-02
4.177061e-02
1.402502e-02
3.721348e-03
8.710628e-04
1.996994e-04
4.654819e-05
1.086291e-05
2.537344e-06
5.910323e-07
1.374629e-07
3.195811e-08
7.429833e-09
1.726573e-09
4.015329e-10
9.338236e-11
2.160042e-11
5.069598e-12
1.184104e-12
2.585755e-13
5.504759e-14
1.345958e-14
1.027355e-14
1.100402e-14
1.117038e-14
1.167022e-14
1.097828e-14
1.097887e-14
1.024567e-14
7.325061e-15
7.324769e-15
7.217207e-15
7.218030e-15
7.218929e-15
7.222428e-15
7.231106e-15
7.257146e-15
7.333916e-15
7.564624e-15
7.711768e-15
7.762899e-15
7.786310e-15
7.851792e-15
8.041127e-15
8.191925e-15
8.331061e-15
8.573542e-15
8.930629e-15
9.171289e-15
9.434800e-15
9.789602e-15
1.016216e-14
1.089958e-14
1.195925e-14
1.244936e-14
1.031997e-14
4.452890e-15
9.259825e-16
5.590414e-17
-2.077340e-16
-3.440125e-16
-4.030251e-16
-4.330373e-16
-4.557999e-16
-4.683494e-16
-4.758421e-16
-4.801043e-16
-4.816683e-16
-3.577902e-16
9.999996e-01
9.999927e-01
9.999372e-01
9.995434e-01
9.969268e-01
9.803858e-01
9.253599e-01
8.190122e-01
6.695764e-01
5.000000e-01
3.378680e-01
2.043164e-01
1.087124e-01
4.950413e-02
1.814631e-02
5.399783e-03
1.216381e-03
2.872592e-04
6.716026e-05
1.569094e-05
3.643263e-06
8.453661e-07
1.962630e-07
4.560232e-08
1.059350e-08
2.461388e-09
5.719835e-10
1.322514e-10
3.088714e-11
7.213548e-12
1.632855e-12
3.615341e-13
7.276336e-14
3.122311e-14
3.386449e-14
3.222032e-14
2.924949e-14
3.142712e-14
3.160219e-14
2.655619e-14
2.039863e-14
2.039924e-14
2.031154e-14
2.031711e-14
2.032960e-14
2.036159e-14
2.045811e-14
2.074208e-14
2.159585e-14
2.268155e-14
2.313448e-14
2.328945e-14
2.335831e-14
2.355490e-14
2.412526e-14
2.457652e-14
2.499353e-14
2.572072e-14
2.679415e-14
2.750988e-14
2.827904e-14
2.933010e-14
3.032282e-14
3.193553e-14
3.520078e-14
3.772705e-14
3.717798e-14
2.029847e-14
5.799882e-15
5.818157e-16
-2.089557e-16
-8.050030e-16
-1.153778e-15
-1.295941e-15
-1.367333e-15
-1.405029e-15
-1.427505e-15
-1.440374e-15
-1.444924e-15
-1.073493e-15
9.999999e-01
9.999983e-01
9.999853e-01
9.998927e-01
9.992705e-01
9.951743e-01
9.737540e-01
9.130781e-01
8.065826e-01
6.621320e-01
5.000000e-01
3.443037e-01
2.140607e-01
1.185073e-01
5.698105e-02
2.276788e-02
7.258693e-03
1.783599e-03
4.145449e-04
9.664049e-05
2.228960e-05
5.162192e-06
1.198122e-06
2.784500e-07
6.467081e-08
1.501154e-08
3.484579e-09
8.057181e-10
1.875450e-10
4.363422e-11
1.003667e-11
2.296482e-12
4.809617e-13
1.062550e-13
7.906574e-14
7.931136e-14
7.786944e-14
7.797491e-14
7.801402e-14
6.881114e-14
5.908506e-14
5.918857e-14
5.923125e-14
5.935113e-14
5.941242e-14
5.957160e-14
5.994749e-14
6.105633e-14
6.437627e-14
6.803295e-14
6.939703e-14
6.986096e-14
7.007269e-14
7.066226e-14
7.237264e-14
7.372810e-14
7.497966e-14
7.716603e-14
8.037884e-14
8.253024e-14
8.480884e-14
8.794308e-14
9.079372e-14
9.456613e-14
1.027317e-13
1.105097e-13
1.124310e-13
8.206521e-14
3.025328e-14
4.821054e-15
4.489451e-17
-2.036959e-15
-3.301935e-15
-3.870161e-15
-4.101580e-15
-4.214964e-15
-4.282297e-15
-4.321164e-15
-4.334305e-15
-3.220371e-15
1.000000e+00
9.999996e-01
9.999965e-01
9.999747e-01
9.998271e-01
9.988583e-01
9.926151e-01
9.661019e-01
9.018053e-01
7.956836e-01
6.556963e-01
5.000000e-01
3.499662e-01
2.228726e-01
1.275564e-01
6.425944e-02
2.751431e-02
9.372937e-03
2.544226e-03
5.915967e-04
1.349730e-04
3.133201e-05
7.284904e-06
1.694677e-06
3.933246e-07
9.117004e-08
2.113365e-08
4.887143e-09
1.134954e-09
2.632561e-10
6.088234e-11
1.412644e-11
3.142162e-12
5.954482e-13
2.146542e-13
2.134308e-13
2.164311e-13
2.148387e-13
2.148374e-13
1.797382e-13
1.687539e-13
1.708555e-13
1.715595e-13
1.736638e-13
1.743949e-13
1.759752e-13
1.773504e-13
1.811440e-13
1.924812e-13
2.040773e-13
2.081758e-13
2.095747e-13
2.101935e-13
2.119691e-13
2.171059e-13
2.211731e-13
2.249290e-13
2.314928e-13
2.411233e-13
2.475780e-13
2.543861e-13
2.637645e-13
2.721796e-13
2.824297e-13
3.008625e-13
3.327717e-13
3.470948e-13
3.034822e-13
1.396262e-13
3.324204e-14
3.164577e-15
-4.603926e-15
-9.647622e-15
-1.153866e-14
-1.229676e-14
-1.264476e-14
-1.284585e-14
-1.296095e-14
-1.300039e-14
-9.659971e-15
1.000000e+00
9.999999e-01
9.999992e-01
9.999940e-01
9.999594e-01
9.997339e-01
9.983015e-01
9.894208e-01
9.582294e-01
8.912876e-01
7.859393e-01
6.500338e-01
5.000000e-01
3.550292e-01
2.308585e-01
1.359693e-01
7.129642e-02
3.234354e-02
1.193495e-02
3.588692e-03
8.057805e-04
1.898240e-04
4.424823e-05
1.029715e-05
2.384070e-06
5.514555e-07
1.276588e-07
2.952799e-08
6.846919e-09
1.585879e-09
3.670182e-10
8.535927e-11
1.967141e-11
3.968926e-12
7.988773e-13
6.168660e-13
6.241651e-13
6.238963e-13
6.239757e-13
5.124571e-13
4.977777e-13
5.058642e-13
5.085854e-13
5.166061e-13
5.193016e-13
5.252042e-13
5.295398e-13
5.413483e-13
5.767331e-13
6.121956e-13
6.244758e-13
6.286781e-13
6.305193e-13
6.358355e-13
6.512311e-13
6.634738e-13
6.747547e-13
6.944508e-13
7.233419e-13
7.426958e-13
7.630946e-13
7.912053e-13
8.163051e-13
8.459224e-13
8.887019e-13
9.777825e-13
1.025819e-12
1.034079e-12
5.973747e-13
1.816158e-13
2.266810e-14
-5.462273e-15
-2.507345e-14
-3.369017e-14
-3.677281e-14
-3.793362e-14
-3.853205e-14
-3.888005e-14
-3.899728e-14
-2.897618e-14
1.000000e+00
1.000000e+00
9.999998e-01
9.999986e-01
9.999905e-01
9.999377e-01
9.996019e-01
9.974842e-01
9.859750e-01
9.504959e-01
8.814927e-01
7.771274e-01
6.449708e-01
5.000000e-01
3.595837e-01
2.381397e-01
1.438292e-01
7.809825e-02
3.714616e-02
1.480574e-02
4.722146e-03
1.161668e-03
2.691235e-04
6.247357e-05
1.438331e-05
3.320407e-06
7.683130e-07
1.778350e-07
4.119988e-08
9.537510e-09
2.205001e-09
5.119954e-10
1.194225e-10
2.588577e-11
4.670178e-12
1.828529e-12
1.828597e-12
1.757840e-12
1.757873e-12
1.491322e-12
1.484907e-12
1.510305e-12
1.519297e-12
1.545145e-12
1.553752e-12
1.572724e-12
1.586087e-12
1.621932e-12
1.729187e-12
1.836356e-12
1.873170e-12
1.885757e-12
1.891348e-12
1.907459e-12
1.953604e-12
1.990526e-12
2.024423e-12
2.083280e-12
2.170188e-12
2.227962e-12
2.289097e-12
2.373393e-12
2.448593e-12
2.536326e-12
2.652452e-12
2.844014e-12
2.990420e-12
3.042830e-12
2.275338e-12
8.729026e-13
1.604172e-13
-1.475961e-17
-6.993421e-14
-9.982905e-14
-1.100615e-13
-1.137887e-13
-1.155900e-13
-1.166026e-13
-1.169488e-13
-8.691788e-14
1.000000e+00
1.000000e+00
1.000000e+00
9.999997e-01
9.999978e-01
9.999854e-01
9.999066e-01
9.994089e-01
9.962787e-01
9.818537e-01
9.430189e-01
8.724436e-01
7.691415e-01
6.404163e-01
5.000000e-01
3.637045e-01
2.448224e-01
1.512088e-01
8.459718e-02
4.196225e-02
1.778948e-02
6.034506e-03
1.630116e-03
3.773524e-04
8.609478e-05
1.990075e-05
4.611925e-06
1.068760e-06
2.474289e-07
5.724168e-08
1.321349e-08
3.062384e-09
7.137326e-10
1.614128e-10
3.200990e-11
6.872415e-12
4.420352e-12
4.398127e-12
4.419952e-12
4.427176e-12
4.446184e-12
4.452134e-12
4.469774e-12
4.475726e-12
4.487321e-12
4.508400e-12
4.568937e-12
4.750129e-12
5.185502e-12
5.508462e-12
5.618948e-12
5.656422e-12
5.673200e-12
5.721790e-12
5.860950e-12
5.971410e-12
6.073169e-12
6.249475e-12
6.510389e-12
6.684209e-12
6.866686e-12
7.119525e-12
7.345306e-12
7.606833e-12
7.943384e-12
8.391189e-12
8.876338e-12
9.084896e-12
7.947426e-12
3.757657e-12
1.021705e-12
7.982125e-14
-1.783535e-13
-2.909256e-13
-3.285755e-13
-3.413623e-13
-3.467307e-13
-3.497236e-13
-3.507240e-13
-2.607177e-13
1.000000e+00
1.000000e+00
1.000000e+00
9.999999e-01
9.999995e-01
9.999966e-01
9.999781e-01
9.998611e-01
9.991289e-01
9.946002e-01
9.772321e-01
9.357406e-01
8.640307e-01
7.618603e-01
6.362955e-01
5.000000e-01
3.674583e-01
2.509979e-01
1.581232e-01
9.083812e-02
4.673442e-02
2.088926e-02
7.615851e-03
2.261504e-03
5.092923e-04
1.190687e-04
2.767499e-05
6.417626e-06
1.483357e-06
3.426664e-07
7.897924e-08
1.828107e-08
4.242434e-09
9.767879e-10
2.104374e-10
4.043603e-11
1.255417e-11
1.223868e-11
1.235625e-11
1.239444e-11
1.250939e-11
1.255413e-11
1.268283e-11
1.275969e-11
1.281946e-11
1.298954e-11
1.326919e-11
1.409842e-11
1.555310e-11
1.652417e-11
1.685570e-11
1.696727e-11
1.701692e-11
1.716279e-11
1.758247e-11
1.791294e-11
1.821857e-11
1.874738e-11
1.952973e-11
2.005142e-11
2.059761e-11
2.135614e-11
2.203429e-11
2.281669e-11
2.381419e-11
2.502968e-11
2.624702e-11
2.720873e-11
2.549632e-11
1.484167e-11
5.452457e-12
8.083475e-13
-5.034670e-13
-8.638150e-13
-9.839501e-13
-1.023873e-12
-1.040104e-12
-1.048874e-12
-1.051916e-12
-7.820362e-13
1.000000e+00
1.000000e+00
1.000000e+00
1.000000e+00
9.999999e-01
9.999992e-01
9.999949e-01
9.999678e-01
9.998003e-01
9.987836e-01
9.927413e-01
9.724857e-01
9.287036e-01
8.561708e-01
7.551776e-01
6.325417e-01
5.000000e-01
3.709043e-01
2.567203e-01
1.646241e-01
9.683272e-02
5.145775e-02
2.404294e-02
9.416011e-03
2.968655e-03
7.181105e-04
1.664321e-04
3.851400e-05
8.868883e-06
2.044211e-06
4.707497e-07
1.088945e-07
2.518967e-08
5.824290e-09
1.313638e-09
2.679965e-10
5.387191e-11
3.576271e-11
3.604490e-11
3.615188e-11
3.644292e-11
3.661750e-11
3.711611e-11
3.741610e-11
3.774572e-11
3.841887e-11
3.935410e-11
4.214157e-11
4.665312e-11
4.956684e-11
5.056533e-11
5.089818e-11
5.104492e-11
5.148303e-11
5.274615e-11
5.373513e-11
5.465216e-11
5.624490e-11
5.858266e-11
6.014932e-11
6.178499e-11
6.406337e-11
6.609387e-11
6.844205e-11
7.142221e-11
7.493550e-11
7.835277e-11
8.157521e-11
6.868567e-11
3.780730e-11
1.179015e-11
5.450229e-14
-2.039479e-12
-2.736791e-12
-2.969779e-12
-3.071907e-12
-3.119709e-12
-3.146637e-12
-3.156007e-12
-2.345771e-12
1.000000e+00
1.000000e+00
1.000000e+00
1.000000e+00
1.000000e+00
9.999998e-01
9.999988e-01
9.999925e-01
9.999535e-01
9.997127e-01
9.982164e-01
9.906271e-01
9.676565e-01
9.219017e-01
8.487912e-01
7.490021e-01
6.290957e-01
5.000000e-01
3.740821e-01
2.620423e-01
1.707542e-01
1.026007e-01
5.608537e-02
2.725903e-02
1.132744e-02
3.782908e-03
9.997949e-04
2.304336e-04
5.274814e-05
1.214161e-05
2.798491e-06
6.473780e-07
1.495468e-07
3.455065e-08
7.932209e-09
1.729142e-09
3.280195e-10
1.063460e-10
1.053563e-10
1.074267e-10
1.081139e-10
1.084871e-10
1.094807e-10
1.108601e-10
1.125057e-10
1.147055e-10
1.176034e-10
1.262601e-10
1.399398e-10
1.486875e-10
1.516499e-10
1.526524e-10
1.531167e-10
1.544269e-10
1.582260e-10
1.611864e-10
1.639379e-10
1.687177e-10
1.757545e-10
1.804269e-10
1.853299e-10
1.920719e-10
1.982669e-10
2.053049e-10
2.142269e-10
2.236055e-10
2.303969e-10
1.972884e-10
1.147099e-10
3.568355e-11
5.942881e-12
-4.323910e-12
-7.481405e-12
-8.534698e-12
-8.927733e-12
-9.144772e-12
-9.353551e-12
-9.434794e-12
-9.463922e-12
-7.036290e-12
1.000000e+00
1.000000e+00
1.000000e+00
1.000000e+00
1.000000e+00
1.000000e+00
9.999997e-01
9.999983e-01
9.999891e-01
9.999328e-01
9.995855e-01
9.974558e-01
9.880651e-01
9.628538e-01
9.154028e-01
8.418768e-01
7.432797e-01
6.259179e-01
5.000000e-01
3.770239e-01
2.670101e-01
1.765533e-01
1.081371e-01
6.062225e-02
3.050877e-02
1.333941e-02
4.746095e-03
1.369192e-03
3.110463e-04
7.184113e-05
1.661614e-05
3.844526e-06
8.876499e-07
2.046555e-07
4.713593e-08
1.068260e-08
2.148103e-09
4.967505e-10
3.227397e-10
3.232734e-10
3.234740e-10
3.240821e-10
3.258541e-10
3.310988e-10
3.367807e-10
3.435291e-10
3.521207e-10
3.710100e-10
3.981132e-10
4.199778e-10
4.335029e-10
4.437591e-10
4.538708e-10
4.632411e-10
4.746535e-10
4.835329e-10
4.917946e-10
5.061009e-10
5.272236e-10
5.412663e-10
5.531032e-10
5.669743e-10
5.817135e-10
5.958733e-10
6.131288e-10
5.952404e-10
4.639112e-10
2.645495e-10
9.896431e-11
1.920609e-11
-1.109961e-11
-2.134997e-11
-2.477220e-11
-2.591989e-11
-2.651363e-11
-2.736201e-11
-2.805351e-11
-2.829852e-11