# vtk DataFile Version 3.0
QUICK_DC(JC)
ASCII
DATASET STRUCTURED_GRID
DIMENSIONS 81 81 1
POINTS 6561 double
0.000000e+00 0.000000e+00 0.0
1.250000e-02 0.000000e+00 0.0
2.500000e-02 0.000000e+00 0.0
3.750000e-02 0.000000e+00 0.0
5.000000e-02 0.000000e+00 0.0
6.250000e-02 0.000000e+00 0.0
7.500000e-02 0.000000e+00 0.0
8.750000e-02 0.000000e+00 0.0
1.000000e-01 0.000000e+00 0.0
1.125000e-01 0.000000e+00 0.0
1.250000e-01 0.000000e+00 0.0
1.375000e-01 0.000000e+00 0.0
1.500000e-01 0.000000e+00 0.0
1.625000e-01 0.000000e+00 0.0
1.750000e-01 0.000000e+00 0.0
1.875000e-01 0.000000e+00 0.0
2.000000e-01 0.000000e+00 0.0
2.125000e-01 0.000000e+00 0.0
2.250000e-01 0.000000e+00 0.0
2.375000e-01 0.000000e+00 0.0
2.500000e-01 0.000000e+00 0.0
2.625000e-01 0.000000e+00 0.0
2.750000e-01 0.000000e+00 0.0
2.875000e-01 0.000000e+00 0.0
3.000000e-01 0.000000e+00 0.0
3.125000e-01 0.000000e+00 0.0
3.250000e-01 0.000000e+00 0.0
3.375000e-01 0.000000e+00 0.0
3.500000e-01 0.000000e+00 0.0
3.625000e-01 0.000000e+00 0.0
3.750000e-01 0.000000e+00 0.0
3.875000e-01 0.000000e+00 0.0
4.000000e-01 0.000000e+00 0.0
4.125000e-01 0.000000e+00 0.0
4.250000e-01 0.000000e+00 0.0
4.375000e-01 0.000000e+00 0.0
4.500000e-01 0.000000e+00 0.0
4.625000e-01 0.000000e+00 0.0
4.750000e-01 0.000000e+00 0.0
4.875000e-01 0.000000e+00 0.0
5.000000e-01 0.000000e+00 0.0
5.125000e-01 0.000000e+00 0.0
5.250000e-01 0.000000e+00 0.0
5.375000e-01 0.000000e+00 0.0
5.500000e-01 0.000000e+00 0.0
5.625000e-01 0.000000e+00 0.0
5.750000e-01 0.000000e+00 0.0
5.875000e-01 0.000000e+00 0.0
6.000000e-01 0.000000e+00 0.0
6.125000e-01 0.000000e+00 0.0
6.250000e-01 0.000000e+00 0.0
6.375000e-01 0.000000e+00 0.0
6.500000e-01 0.000000e+00 0.0
6.625000e-01 0.000000e+00 0.0
6.750000e-01 0.000000e+00 0.0
6.875000e-01 0.000000e+00 0.0
7.000000e-01 0.000000e+00 0.0
7.125000e-01 0.000000e+00 0.0
7.250000e-01 0.000000e+00 0.0
7.375000e-01 0.000000e+00 0.0
7.500000e-01 0.000000e+00 0.0
7.625000e-01 0.000000e+00 0.0
7.750000e-01 0.000000e+00 0.0
7.875000e-01 0.000000e+00 0.0
8.000000e-01 0.000000e+00 0.0
8.125000e-01 0.000000e+00 0.0
8.250000e-01 0.000000e+00 0.0
8.375000e-01 0.000000e+00 0.0
8.500000e-01 0.000000e+00 0.0
8.625000e-01 0.000000e+00 0.0
8.750000e-01 0.000000e+00 0.0
8.875000e-01 0.000000e+00 0.0
9.000000e-01 0.000000e+00 0.0
9.125000e-01 0.000000e+00 0.0
9.250000e-01 0.000000e+00 0.0
9.375000e-01 0.000000e+00 0.0
9.500000e-01 0.000000e+00 0.0
9.625000e-01 0.000000e+00 0.0
9.750000e-01 0.000000e+00 0.0
9.875000e-01 0.000000e+00 0.0
1.000000e+00 0.000000e+00 0.0
0.000000e+00 1.250000e-02 0.0
1.250000e-02 1.250000e-02 0.0
2.500000e-02 1.250000e-02 0.0
3.750000e-02 1.250000e-02 0.0
5.000000e-02 1.250000e-02 0.0
6.250000e-02 1.250000e-02 0.0
7.500000e-02 1.250000e-02 0.0
8.750000e-02 1.250000e-02 0.0
1.000000e-01 1.250000e-02 0.0
1.125000e-01 1.250000e-02 0.0
1.250000e-01 1.250000e-02 0.0
1.375000e-01 1.250000e-02 0.0
1.500000e-01 1.250000e-02 0.0
1.625000e-01 1.250000e-02 0.0
1.750000e-01 1.250000e-02 0.0
1.875000e-01 1.250000e-02 0.0
2.000000e-01 1.250000e-02 0.0
2.125000e-01 1.250000e-02 0.0
2.250000e-01 1.250000e-02 0.0
2.375000e-01 1.250000e-02 0.0
2.500000e-01 1.250000e-02 0.0
2.625000e-01 1.250000e-02 0.0
2.750000e-01 1.250000e-02 0.0
2.875000e-01 1.250000e-02 0.0
3.000000e-01 1.250000e-02 0.0
3.125000e-01 1.250000e-02 0.0
3.250000e-01 1.250000e-02 0.0
3.375000e-01 1.250000e-02 0.0
3.500000e-01 1.250000e-02 0.0
3.625000e-01 1.250000e-02 0.0
3.750000e-01 1.250000e-02 0.0
3.875000e-01 1.250000e-02 0.0
4.000000e-01 1.250000e-02 0.0
4.125000e-01 1.250000e-02 0.0
4.250000e-01 1.250000e-02 0.0
4.375000e-01 1.250000e-02 0.0
4.500000e-01 1.250000e-02 0.0
4.625000e-01 1.250000e-02 0.0
4.750000e-01 1.250000e-02 0.0
4.875000e-01 1.250000e-02 0.0
5.000000e-01 1.250000e-02 0.0
5.125000e-01 1.250000e-02 0.0
5.250000e-01 1.250000e-02 0.0
5.375000e-01 1.250000e-02 0.0
5.500000e-01 1.250000e-02 0.0
5.625000e-01 1.250000e-02 0.0
5.750000e-01 1.250000e-02 0.0
5.875000e-01 1.250000e-02 0.0
6.000000e-01 1.250000e-02 0.0
6.125000e-01 1.250000e-02 0.0
6.250000e-01 1.250000e-02 0.0
6.375000e-01 1.250000e-02 0.0
6.500000e-01 1.250000e-02 0.0
6.625000e-01 1.250000e-02 0.0
6.750000e-01 1.250000e-02 0.0
6.875000e-01 1.250000e-02 0.0
7.000000e-01 1.250000e-02 0.0
7.125000e-01 1.250000e-02 0.0
7.250000e-01 1.250000e-02 0.0
7.375000e-01 1.250000e-02 0.0
7.500000e-01 1.250000e-02 0.0
7.625000e-01 1.250000e-02 0.0
7.750000e-01 1.250000e-02 0.0
7.875000e-01 1.250000e-02 0.0
8.000000e-01 1.250000e-02 0.0
8.125000e-01 1.250000e-02 0.0
8.250000e-01 1.250000e-02 0.0
8.375000e-01 1.250000e-02 0.0
8.500000e-01 1.250000e-02 0.0
8.625000e-01 1.250000e-02 0.0
8.750000e-01 1.250000e-02 0.0
8.875000e-01 1.250000e-02 0.0
9.000000e-01 1.250000e-02 0.0
9.125000e-01 1.250000e-02 0.0
9.250000e-01 1.250000e-02 0.0
9.375000e-01 1.250000e-02 0.0
9.500000e-01 1.250000e-02 0.0
9.625000e-01 1.250000e-02 0.0
9.750000e-01 1.250000e-02 0.0
9.875000e-01 1.250000e-02 0.0
1.000000e+00 1.250000e-02 0.0
0.000000e+00 2.500000e-02 0.0
1.250000e-02 2.500000e-02 0.0
2.500000e-02 2.500000e-02 0.0
3.750000e-02 2.500000e-02 0.0
5.000000e-02 2.500000e-02 0.0
6.250000e-02 2.500000e-02 0.0
7.500000e-02 2.500000e-02 0.0
8.750000e-02 2.500000e-02 0.0
1.000000e-01 2.500000e-02 0.0
1.125000e-01 2.500000e-02 0.0
1.250000e-01 2.500000e-02 0.0
1.375000e-01 2.500000e-02 0.0
1.500000e-01 2.500000e-02 0.0
1.625000e-01 2.500000e-02 0.0
1.750000e-01 2.500000e-02 0.0
1.875000e-01 2.500000e-02 0.0
2.000000e-01 2.500000e-02 0.0
2.125000e-01 2.500000e-02 0.0
2.250000e-01 2.500000e-02 0.0
2.375000e-01 2.500000e-02 0.0
2.500000e-01 2.500000e-02 0.0
2.625000e-01 2.500000e-02 0.0
2.750000e-01 2.500000e-02 0.0
2.875000e-01 2.500000e-02 0.0
3.000000e-01 2.500000e-02 0.0
3.125000e-01 2.500000e-02 0.0
3.250000e-01 2.500000e-02 0.0
3.375000e-01 2.500000e-02 0.0
3.500000e-01 2.500000e-02 0.0
3.625000e-01 2.500000e-02 0.0
3.750000e-01 2.500000e-02 0.0
3.875000e-01 2.500000e-02 0.0
4.000000e-01 2.500000e-02 0.0
4.125000e-01 2.500000e-02 0.0
4.250000e-01 2.500000e-02 0.0
4.375000e-01 2.500000e-02 0.0
4.500000e-01 2.500000e-02 0.0
4.625000e-01 2.500000e-02 0.0
4.750000e-01 2.500000e-02 0.0
4.875000e-01 2.500000e-02 0.0
5.000000e-01 2.500000e-02 0.0
5.125000e-01 2.500000e-02 0.0
5.250000e-01 2.500000e-02 0.0
5.375000e-01 2.500000e-02 0.0
5.500000e-01 2.500000e-02 0.0
5.625000e-01 2.500000e-02 0.0
5.750000e-01 2.500000e-02 0.0
5.875000e-01 2.500000e-02 0.0
6.000000e-01 2.500000e-02 0.0
6.125000e-01 2.500000e-02 0.0
6.250000e-01 2.500000e-02 0.0
6.375000e-01 2.500000e-02 0.0
6.500000e-01 2.500000e-02 0.0
6.625000e-01 2.500000e-02 0.0
6.750000e-01 2.500000e-02 0.0
6.875000e-01 2.500000e-02 0.0
7.000000e-01 2.500000e-02 0.0
7.125000e-01 2.500000e-02 0.0
7.250000e-01 2.500000e-02 0.0
7.375000e-01 2.500000e-02 0.0
7.500000e-01 2.500000e-02 0.0
7.625000e-01 2.500000e-02 0.0
7.750000e-01 2.500000e-02 0.0
7.875000e-01 2.500000e-02 0.0
8.000000e-01 2.500000e-02 0.0
8.125000e-01 2.500000e-02 0.0
8.250000e-01 2.500000e-02 0.0
8.375000e-01 2.500000e-02 0.0
8.500000e-01 2.500000e-02 0.0
8.625000e-01 2.500000e-02 0.0
8.750000e-01 2.500000e-02 0.0
8.875000e-01 2.500000e-02 0.0
9.000000e-01 2.500000e-02 0.0
9.125000e-01 2.500000e-02 0.0
9.250000e-01 2.500000e-02 0.0
9.375000e-01 2.500000e-02 0.0
9.500000e-01 2.500000e-02 0.0
9.625000e-01 2.500000e-02 0.0
9.750000e-01 2.500000e-02 0.0
9.875000e-01 2.500000e-02 0.0
1.000000e+00 2.500000e-02 0.0
0.000000e+00 3.750000e-02 0.0
1.250000e-02 3.750000e-02 0.0
2.500000e-02 3.750000e-02 0.0
3.750000e-02 3.750000e-02 0.0
5.000000e-02 3.750000e-02 0.0
6.250000e-02 3.750000e-02 0.0
7.500000e-02 3.750000e-02 0.0
8.750000e-02 3.750000e-02 0.0
1.000000e-01 3.750000e-02 0.0
1.125000e-01 3.750000e-02 0.0
1.250000e-01 3.750000e-02 0.0
1.375000e-01 3.750000e-02 0.0
1.500000e-01 3.750000e-02 0.0
1.625000e-01 3.750000e-02 0.0
1.750000e-01 3.750000e-02 0.0
1.875000e-01 3.750000e-02 0.0
2.000000e-01 3.750000e-02 0.0
2.125000e-01 3.750000e-02 0.0
2.250000e-01 3.750000e-02 0.0
2.375000e-01 3.750000e-02 0.0
2.500000e-01 3.750000e-02 0.0
2.625000e-01 3.750000e-02 0.0
2.750000e-01 3.750000e-02 0.0
2.875000e-01 3.750000e-02 0.0
3.000000e-01 3.750000e-02 0.0
3.125000e-01 3.750000e-02 0.0
3.250000e-01 3.750000e-02 0.0
3.375000e-01 3.750000e-02 0.0
3.500000e-01 3.750000e-02 0.0
3.625000e-01 3.750000e-02 0.0
3.750000e-01 3.750000e-02 0.0
3.875000e-01 3.750000e-02 0.0
4.000000e-01 3.750000e-02 0.0
4.125000e-01 3.750000e-02 0.0
4.250000e-01 3.750000e-02 0.0
4.375000e-01 3.750000e-02 0.0
4.500000e-01 3.750000e-02 0.0
4.625000e-01 3.750000e-02 0.0
4.750000e-01 3.750000e-02 0.0
4.875000e-01 3.750000e-02 0.0
5.000000e-01 3.750000e-02 0.0
5.125000e-01 3.750000e-02 0.0
5.250000e-01 3.750000e-02 0.0
5.375000e-01 3.750000e-02 0.0
5.500000e-01 3.750000e-02 0.0
5.625000e-01 3.750000e-02 0.0
5.750000e-01 3.750000e-02 0.0
5.875000e-01 3.750000e-02 0.0
6.000000e-01 3.750000e-02 0.0
6.125000e-01 3.750000e-02 0.0
6.250000e-01 3.750000e-02 0.0
6.375000e-01 3.750000e-02 0.0
6.500000e-01 3.750000e-02 0.0
6.625000e-01 3.750000e-02 0.0
6.750000e-01 3.750000e-02 0.0
6.875000e-01 3.750000e-02 0.0
7.000000e-01 3.750000e-02 0.0
7.125000e-01 3.750000e-02 0.0
7.250000e-01 3.750000e-02 0.0
7.375000e-01 3.750000e-02 0.0
7.500000e-01 3.750000e-02 0.0
7.625000e-01 3.750000e-02 0.0
7.750000e-01 3.750000e-02 0.0
7.875000e-01 3.750000e-02 0.0
8.000000e-01 3.750000e-02 0.0
8.125000e-01 3.750000e-02 0.0
8.250000e-01 3.750000e-02 0.0
8.375000e-01 3.750000e-02 0.0
8.500000e-01 3.750000e-02 0.0
8.625000e-01 3.750000e-02 0.0
8.750000e-01 3.750000e-02 0.0
8.875000e-01 3.750000e-02 0.0
9.000000e-01 3.750000e-02 0.0
9.125000e-01 3.750000e-02 0.0
9.250000e-01 3.750000e-02 0.0
9.375000e-01 3.750000e-02 0.0
9.500000e-01 3.750000e-02 0.0
9.625000e-01 3.750000e-02 0.0
9.750000e-01 3.750000e-02 0.0
9.875000e-01 3.750000e-02 0.0
1.000000e+00 3.750000e-02 0.0
0.000000e+00 5.000000e-02 0.0
1.250000e-02 5.000000e-02 0.0
2.500000e-02 5.000000e-02 0.0
3.750000e-02 5.000000e-02 0.0
5.000000e-02 5.000000e-02 0.0
[...]
CELL_DATA 6400
SCALARS Temperature double 1
LOOKUP_TABLE default
5.000000e-01
2.258757e-01
1.327488e-01
9.233275e-02
7.071433e-02
5.731929e-02
4.818172e-02
4.153548e-02
3.647791e-02
3.249785e-02
2.928316e-02
2.663206e-02
2.440814e-02
2.251583e-02
2.088612e-02
1.946797e-02
1.822275e-02
1.712074e-02
1.613867e-02
1.525805e-02
1.446402e-02
1.374451e-02
1.308959e-02
1.249102e-02
1.194194e-02
1.143653e-02
1.096988e-02
1.053779e-02
1.013666e-02
9.763372e-03
9.415215e-03
9.089835e-03
8.785165e-03
8.499390e-03
8.230905e-03
7.978289e-03
7.740280e-03
7.515751e-03
7.303694e-03
7.103208e-03
6.913481e-03
6.733781e-03
6.563449e-03
6.401887e-03
6.248554e-03
6.102958e-03
5.964654e-03
5.833234e-03
5.708327e-03
5.589596e-03
5.476730e-03
5.369449e-03
5.267493e-03
5.170627e-03
5.078634e-03
4.991317e-03
4.908495e-03
4.830003e-03
4.755692e-03
4.685423e-03
4.619072e-03
4.556526e-03
4.497683e-03
4.442451e-03
4.390748e-03
4.342500e-03
4.297642e-03
4.256119e-03
4.217882e-03
4.182890e-03
4.151109e-03
4.122514e-03
4.097084e-03
4.074806e-03
4.055676e-03
4.039693e-03
4.026864e-03
4.017204e-03
4.010733e-03
4.007478e-03
7.741243e-01
5.000000e-01
3.479843e-01
2.600950e-01
2.054538e-01
1.689848e-01
1.431559e-01
1.239815e-01
1.092114e-01
9.749614e-02
8.798225e-02
8.010553e-02
7.347864e-02
6.782717e-02
6.295137e-02
5.870247e-02
5.496739e-02
5.165871e-02
4.870777e-02
4.605989e-02
4.367102e-02
4.150525e-02
3.953306e-02
3.772991e-02
3.607526e-02
3.455180e-02
3.314482e-02
3.184174e-02
3.063177e-02
2.950557e-02
2.845502e-02
2.747306e-02
2.655347e-02
2.569081e-02
2.488024e-02
2.411751e-02
2.339881e-02
2.272076e-02
2.208032e-02
2.147478e-02
2.090170e-02
2.035887e-02
1.984431e-02
1.935622e-02
1.889296e-02
1.845306e-02
1.803517e-02
1.763807e-02
1.726063e-02
1.690184e-02
1.656076e-02
1.623655e-02
1.592843e-02
1.563567e-02
1.535764e-02
1.509374e-02
1.484341e-02
1.460617e-02
1.438156e-02
1.416916e-02
1.396860e-02
1.377955e-02
1.360168e-02
1.343472e-02
1.327843e-02
1.313258e-02
1.299698e-02
1.287146e-02
1.275587e-02
1.265009e-02
1.255402e-02
1.246757e-02
1.239069e-02
1.232335e-02
1.226551e-02
1.221720e-02
1.217841e-02
1.214921e-02
1.212965e-02
1.211981e-02
8.672512e-01
6.520157e-01
5.000000e-01
3.956866e-01
3.230686e-01
2.709784e-01
2.323587e-01
2.028272e-01
1.796247e-01
1.609670e-01
1.456656e-01
1.329047e-01
1.221091e-01
1.128629e-01
1.048585e-01
9.786397e-02
9.170147e-02
8.623229e-02
8.134679e-02
7.695723e-02
7.299255e-02
6.939465e-02
6.611555e-02
6.311529e-02
6.036033e-02
5.782235e-02
5.547722e-02
5.330430e-02
5.128581e-02
4.940638e-02
4.765263e-02
4.601287e-02
4.447687e-02
4.303558e-02
4.168104e-02
4.040617e-02
3.920467e-02
3.807093e-02
3.699991e-02
3.598710e-02
3.502845e-02
3.412029e-02
3.325932e-02
3.244255e-02
3.166726e-02
3.093099e-02
3.023150e-02
2.956675e-02
2.893487e-02
2.833416e-02
2.776308e-02
2.722020e-02
2.670423e-02
2.621397e-02
2.574834e-02
2.530635e-02
2.488708e-02
2.448971e-02
2.411348e-02
2.375769e-02
2.342173e-02
2.310502e-02
2.280705e-02
2.252735e-02
2.226551e-02
2.202116e-02
2.179397e-02
2.158367e-02
2.139000e-02
2.121277e-02
2.105179e-02
2.090695e-02
2.077814e-02
2.066529e-02
2.056839e-02
2.048742e-02
2.042244e-02
2.037351e-02
2.034073e-02
2.032424e-02
9.076672e-01
7.399050e-01
6.043134e-01
5.000000e-01
4.207437e-01
3.601454e-01
3.131204e-01
2.759720e-01
2.460924e-01
2.216492e-01
2.013442e-01
1.842443e-01
1.696679e-01
1.571083e-01
1.461831e-01
1.365989e-01
1.281275e-01
1.205888e-01
1.138395e-01
1.077635e-01
1.022666e-01
9.727110e-02
9.271257e-02
8.853715e-02
8.469946e-02
8.116101e-02
7.788898e-02
7.485519e-02
7.203532e-02
6.940830e-02
6.695575e-02
6.466161e-02
6.251175e-02
6.049373e-02
5.859654e-02
5.681038e-02
5.512654e-02
5.353725e-02
5.203553e-02
5.061512e-02
4.927038e-02
4.799623e-02
4.678808e-02
4.564177e-02
4.455351e-02
4.351987e-02
4.253774e-02
4.160427e-02
4.071686e-02
3.987314e-02
3.907095e-02
3.830830e-02
3.758339e-02
3.689455e-02
3.624026e-02
3.561915e-02
3.502993e-02
3.447145e-02
3.394265e-02
3.344256e-02
3.297030e-02
3.252509e-02
3.210620e-02
3.171298e-02
3.134486e-02
3.100131e-02
3.068189e-02
3.038619e-02
3.011388e-02
2.986467e-02
2.963831e-02
2.943464e-02
2.925350e-02
2.909482e-02
2.895855e-02
2.884469e-02
2.875331e-02
2.868449e-02
2.863839e-02
2.861521e-02
9.292857e-01
7.945462e-01
6.769314e-01
5.792563e-01
5.000000e-01
4.361070e-01
3.844374e-01
3.423067e-01
3.075883e-01
2.786524e-01
2.542653e-01
2.334933e-01
2.156262e-01
2.001192e-01
1.865502e-01
1.745887e-01
1.639730e-01
1.544941e-01
1.459830e-01
1.383023e-01
1.313387e-01
1.249987e-01
1.192040e-01
1.138888e-01
1.089974e-01
1.044825e-01
1.003034e-01
9.642523e-02
9.281766e-02
8.945442e-02
8.631253e-02
8.337187e-02
8.061470e-02
7.802536e-02
7.558997e-02
7.329620e-02
7.113303e-02
6.909062e-02
6.716013e-02
6.533364e-02
6.360400e-02
6.196474e-02
6.041003e-02
5.893457e-02
5.753356e-02
5.620263e-02
5.493779e-02
5.373543e-02
5.259222e-02
5.150515e-02
5.047144e-02
4.948857e-02
4.855422e-02
4.766627e-02
4.682278e-02
4.602197e-02
4.526223e-02
4.454205e-02
4.386010e-02
4.321513e-02
4.260602e-02
4.203175e-02
4.149140e-02
4.098414e-02
4.050922e-02
4.006600e-02
3.965387e-02
3.927235e-02
3.892098e-02
3.859941e-02
3.830733e-02
3.804450e-02
3.781076e-02
3.760598e-02
3.743012e-02
3.728319e-02
3.716526e-02
3.707645e-02
3.701695e-02
3.698703e-02
9.426807e-01
8.310152e-01
7.290216e-01
6.398546e-01
5.638930e-01
5.000000e-01
4.464666e-01
4.015374e-01
3.636417e-01
3.314628e-01
3.039325e-01
2.801974e-01
2.595792e-01
2.415393e-01
2.256479e-01
2.115608e-01
1.989999e-01
1.877393e-01
1.775940e-01
1.684117e-01
1.600658e-01
1.524504e-01
1.454765e-01
1.390688e-01
1.331633e-01
1.277049e-01
1.226465e-01
1.179473e-01
1.135718e-01
1.094891e-01
1.056722e-01
1.020971e-01
9.874293e-02
9.559107e-02
9.262500e-02
8.983001e-02
8.719295e-02
8.470206e-02
8.234676e-02
8.011754e-02
7.800581e-02
7.600382e-02
7.410455e-02
7.230161e-02
7.058922e-02
6.896211e-02
6.741547e-02
6.594493e-02
6.454647e-02
6.321645e-02
6.195152e-02
6.074861e-02
5.960492e-02
5.851788e-02
5.748514e-02
5.650454e-02
5.557412e-02
5.469208e-02
5.385676e-02
5.306667e-02
5.232045e-02
5.161685e-02
5.095477e-02
5.033319e-02
4.975121e-02
4.920803e-02
4.870294e-02
4.823533e-02
4.780466e-02
4.741050e-02
4.705247e-02
4.673029e-02
4.644375e-02
4.619271e-02
4.597712e-02
4.579700e-02
4.565241e-02
4.554354e-02
4.547060e-02
4.543391e-02
9.518183e-01
8.568441e-01
7.676413e-01
6.868796e-01
6.155626e-01
5.535334e-01
5.000000e-01
4.539165e-01
4.142087e-01
3.798861e-01
3.500849e-01
3.240749e-01
3.012488e-01
2.811059e-01
2.632343e-01
2.472953e-01
2.330097e-01
2.201462e-01
2.085126e-01
1.979485e-01
1.883190e-01
1.795103e-01
1.714258e-01
1.639832e-01
1.571118e-01
1.507510e-01
1.448481e-01
1.393575e-01
1.342394e-01
1.294589e-01
1.249855e-01
1.207921e-01
1.168548e-01
1.131524e-01
1.096660e-01
1.063788e-01
1.032756e-01
1.003430e-01
9.756876e-02
9.494191e-02
9.245253e-02
9.009165e-02
8.785114e-02
8.572360e-02
8.370232e-02
8.178118e-02
7.995459e-02
7.821745e-02
7.656510e-02
7.499328e-02
7.349809e-02
7.207596e-02
7.072361e-02
6.943804e-02
6.821650e-02
6.705648e-02
6.595567e-02
6.491196e-02
6.392344e-02
6.298834e-02
6.210507e-02
6.127218e-02
6.048836e-02
5.975244e-02
5.906334e-02
5.842015e-02
5.782202e-02
5.726824e-02
5.675818e-02
5.629134e-02
5.586727e-02
5.548565e-02
5.514623e-02
5.484886e-02
5.459348e-02
5.438009e-02
5.420881e-02
5.407983e-02
5.399342e-02
5.394996e-02
9.584645e-01
8.760185e-01
7.971728e-01
7.240280e-01
6.576933e-01
5.984626e-01
5.460835e-01
5.000000e-01
4.595284e-01
4.239665e-01
3.926529e-01
3.649943e-01
3.404733e-01
3.186464e-01
2.991369e-01
2.816263e-01
2.658460e-01
2.515694e-01
2.386048e-01
2.267898e-01
2.159861e-01
2.060759e-01
1.969583e-01
1.885463e-01
1.807649e-01
1.735491e-01
1.668425e-01
1.605955e-01
1.547650e-01
1.493129e-01
1.442056e-01
1.394135e-01
1.349101e-01
1.306721e-01
1.266784e-01
1.229103e-01
1.193511e-01
1.159855e-01
1.128000e-01
1.097823e-01
1.069212e-01
1.042067e-01
1.016295e-01
9.918145e-02
9.685485e-02
9.464282e-02
9.253903e-02
9.053772e-02
8.863362e-02
8.682187e-02
8.509807e-02
8.345815e-02
8.189838e-02
8.041537e-02
7.900598e-02
7.766736e-02
7.639687e-02
7.519211e-02
7.405090e-02
7.297124e-02
7.195130e-02
7.098943e-02
7.008414e-02
6.923409e-02
6.843806e-02
6.769499e-02
6.700394e-02
6.636408e-02
6.577471e-02
6.523524e-02
6.474518e-02
6.430415e-02
6.391187e-02
6.356818e-02
6.327301e-02
6.302637e-02
6.282839e-02
6.267931e-02
6.257943e-02
6.252919e-02
9.635221e-01
8.907886e-01
8.203753e-01
7.539076e-01
6.924117e-01
6.363583e-01
5.857913e-01
5.404716e-01
5.000000e-01
4.639065e-01
4.317083e-01
4.029437e-01
3.771896e-01
3.540681e-01
3.332474e-01
3.144391e-01
2.973938e-01
2.818969e-01
2.677633e-01
2.548341e-01
2.429721e-01
2.320589e-01
2.219919e-01
2.126821e-01
2.040522e-01
1.960344e-01
1.885696e-01
1.816059e-01
1.750972e-01
1.690033e-01
1.632883e-01
1.579202e-01
1.528707e-01
1.481146e-01
1.436290e-01
1.393937e-01
1.353903e-01
1.316024e-01
1.280151e-01
1.246148e-01
1.213894e-01
1.183277e-01
1.154198e-01
1.126563e-01
1.100290e-01
1.075302e-01
1.051529e-01
1.028906e-01
1.007377e-01
9.868855e-02
9.673842e-02
9.488274e-02
9.311738e-02
9.143853e-02
8.984272e-02
8.832675e-02
8.688770e-02
8.552289e-02
8.422988e-02
8.300642e-02
8.185049e-02
8.076025e-02
7.973401e-02
7.877029e-02
7.786774e-02
7.702516e-02
7.624149e-02
7.551582e-02
7.484737e-02
7.423546e-02
7.367957e-02
7.317927e-02
7.273426e-02
7.234436e-02
7.200947e-02
7.172965e-02
7.150503e-02
7.133588e-02
7.122256e-02
7.116555e-02
9.675022e-01
9.025039e-01
8.390330e-01
7.783508e-01
7.213476e-01
6.685372e-01
6.201139e-01
5.760335e-01
5.360935e-01
5.000000e-01
4.674169e-01
4.379988e-01
4.114116e-01
3.873441e-01
3.655132e-01
3.456655e-01
3.275762e-01
3.110478e-01
2.959069e-01
2.820018e-01
2.691999e-01
2.573854e-01
2.464567e-01
2.363249e-01
2.269118e-01
2.181489e-01
2.099754e-01
2.023379e-01
1.951888e-01
1.884860e-01
1.821921e-01
1.762736e-01
1.707006e-01
1.654461e-01
1.604863e-01
1.557993e-01
1.513656e-01
1.471677e-01
1.431894e-01
1.394163e-01
1.358353e-01
1.324343e-01
1.292025e-01
1.261299e-01
1.232074e-01
1.204268e-01
1.177804e-01
1.152613e-01
1.128630e-01
1.105798e-01
1.084062e-01
1.063374e-01
1.043688e-01
1.024962e-01
1.007159e-01
9.902426e-02
9.741818e-02
9.589468e-02
9.445108e-02
9.308493e-02
9.179400e-02
9.057625e-02
8.942986e-02
8.835318e-02
8.734472e-02
8.640318e-02
8.552739e-02
8.471635e-02
8.396919e-02
8.328519e-02
8.266377e-02
8.210446e-02
8.160694e-02
8.117100e-02
8.079657e-02
8.048369e-02
8.023253e-02
8.004338e-02
7.991667e-02
7.985292e-02
9.707168e-01
9.120177e-01
8.543344e-01
7.986558e-01
7.457347e-01
6.960675e-01
6.499151e-01
6.073471e-01
5.682917e-01
5.325831e-01
5.000000e-01
4.702941e-01
4.432103e-01
4.184998e-01
3.959276e-01
3.752769e-01
3.563503e-01
3.389704e-01
3.229785e-01
3.082333e-01
2.946096e-01
2.819963e-01
2.702951e-01
2.594190e-01
2.492907e-01
2.398420e-01
2.310118e-01
2.227462e-01
2.149969e-01
2.077208e-01
2.008794e-01
1.944381e-01
1.883660e-01
1.826351e-01
1.772204e-01
1.720990e-01
1.672505e-01
1.626562e-01
1.582994e-01
1.541645e-01
1.502378e-01
1.465064e-01
1.429587e-01
1.395842e-01
1.363730e-01
1.333164e-01
1.304062e-01
1.276349e-01
1.249957e-01
1.224822e-01
1.200888e-01
1.178100e-01
1.156409e-01
1.135772e-01
1.116147e-01
1.097496e-01
1.079783e-01
1.062979e-01
1.047053e-01
1.031978e-01
1.017732e-01
1.004291e-01
9.916357e-02
9.797485e-02
9.686133e-02
9.582158e-02
9.485434e-02
9.395853e-02
9.313321e-02
9.237760e-02
9.169106e-02
9.107311e-02
9.052339e-02
9.004170e-02
8.962795e-02
8.928220e-02
8.900464e-02
8.879562e-02
8.865558e-02
8.858514e-02
9.733679e-01
9.198945e-01
8.670953e-01
8.157557e-01
7.665067e-01
7.198026e-01
6.759251e-01
6.350057e-01
5.970563e-01
5.620012e-01
5.297059e-01
5.000000e-01
4.726953e-01
4.475985e-01
4.245194e-01
4.032770e-01
3.837019e-01
3.656380e-01
3.489431e-01
3.334882e-01
3.191573e-01
3.058462e-01
2.934613e-01
2.819191e-01
2.711445e-01
2.610706e-01
2.516374e-01
2.427912e-01
2.344836e-01
2.266714e-01
2.193156e-01
2.123810e-01
2.058361e-01
1.996523e-01
1.938035e-01
1.882665e-01
1.830200e-01
1.780445e-01
1.733226e-01
1.688383e-01
1.645768e-01
1.605249e-01
1.566703e-01
1.530019e-01
1.495094e-01
1.461834e-01
1.430154e-01
1.399974e-01
1.371221e-01
1.343829e-01
1.317735e-01
1.292884e-01
1.269223e-01
1.246705e-01
1.225285e-01
1.204924e-01
1.185583e-01
1.167230e-01
1.149832e-01
1.133362e-01
1.117794e-01
1.103104e-01
1.089270e-01
1.076274e-01
1.064099e-01
1.052729e-01
1.042150e-01
1.032352e-01
1.023324e-01
1.015058e-01
1.007547e-01
1.000786e-01
9.947708e-02
9.894998e-02
9.849721e-02
9.811884e-02
9.781509e-02
9.758633e-02
9.743307e-02
9.735597e-02
9.755919e-01
9.265214e-01
8.778909e-01
8.303321e-01
7.843738e-01
7.404208e-01
6.987512e-01
6.595267e-01
6.228104e-01
5.885884e-01
5.567897e-01
5.273047e-01
5.000000e-01
4.747298e-01
4.513442e-01
4.296952e-01
4.096403e-01
3.910451e-01
3.737843e-01
3.577425e-01
3.428141e-01
3.289026e-01
3.159208e-01
3.037894e-01
2.924370e-01
2.817990e-01
2.718170e-01
2.624385e-01
2.536157e-01
2.453059e-01
2.374700e-01
2.300729e-01
2.230827e-01
2.164706e-01
2.102101e-01
2.042774e-01
1.986508e-01
1.933103e-01
1.882380e-01
1.834173e-01
1.788330e-01
1.744714e-01
1.703197e-01
1.663663e-01
1.626005e-01
1.590125e-01
1.555934e-01
1.523347e-01
1.492288e-01
1.462688e-01
1.434482e-01
1.407610e-01
1.382016e-01
1.357652e-01
1.334469e-01
1.312426e-01
1.291484e-01
1.271606e-01
1.252759e-01
1.234913e-01
1.218041e-01
1.202118e-01
1.187121e-01
1.173030e-01
1.159827e-01
1.147496e-01
1.136022e-01
1.125393e-01
1.115598e-01
1.106629e-01
1.098479e-01
1.091142e-01
1.084614e-01
1.078894e-01
1.073979e-01
1.069873e-01
1.066576e-01
1.064093e-01
1.062429e-01
1.061592e-01
9.774842e-01
9.321728e-01
8.871371e-01
8.428917e-01
7.998808e-01
7.584607e-01
7.188941e-01
6.813536e-01
6.459319e-01
6.126559e-01
5.815002e-01
5.524015e-01
5.252702e-01
5.000000e-01
4.764758e-01
4.545794e-01
4.341932e-01
4.152035e-01
3.975021e-01
3.809871e-01
3.655638e-01
3.511446e-01
3.376491e-01
3.250035e-01
3.131404e-01
3.019984e-01
2.915217e-01
2.816592e-01
2.723648e-01
2.635963e-01
2.553155e-01
2.474874e-01
2.400805e-01
2.330656e-01
2.264165e-01
2.201091e-01
2.141212e-01
2.084329e-01
2.030257e-01
1.978827e-01
1.929884e-01
1.883286e-01
1.838903e-01
1.796615e-01
1.756312e-01
1.717891e-01
1.681261e-01
1.646333e-01
1.613030e-01
1.581278e-01
1.551009e-01
1.522161e-01
1.494678e-01
1.468505e-01
1.443596e-01
1.419904e-01
1.397389e-01
1.376013e-01
1.355741e-01
1.336543e-01
1.318388e-01
1.301251e-01
1.285108e-01
1.269938e-01
1.255722e-01
1.242442e-01
1.230084e-01
1.218635e-01
1.208084e-01
1.198421e-01
1.189639e-01
1.181733e-01
1.174699e-01
1.168534e-01
1.163237e-01
1.158811e-01
1.155257e-01
1.152581e-01
1.150788e-01
1.149886e-01
9.791139e-01
9.370486e-01
8.951415e-01
8.538169e-01
8.134498e-01
7.743521e-01
7.367657e-01
7.008631e-01
6.667526e-01
6.344868e-01
6.040724e-01
5.754806e-01
5.486558e-01
5.235242e-01
5.000000e-01
4.779910e-01
4.574021e-01
4.381389e-01
4.201092e-01
4.032247e-01
3.874016e-01
3.725616e-01
3.586313e-01
3.455430e-01
3.332340e-01
3.216467e-01
3.107281e-01
3.004297e-01
2.907069e-01
2.815189e-01
2.728285e-01
2.646016e-01
2.568068e-01
2.494155e-01
2.424016e-01
2.357410e-01
2.294116e-01
2.233932e-01
2.176672e-01
2.122167e-01
2.070258e-01
2.020801e-01
1.973664e-01
1.928724e-01
1.885868e-01
1.844992e-01
1.806000e-01
1.768804e-01
1.733321e-01
1.699476e-01
1.667200e-01
1.636427e-01
1.607100e-01
1.579162e-01
1.552564e-01
1.527259e-01
1.503204e-01
1.480361e-01
1.458692e-01
1.438166e-01
1.418752e-01
1.400422e-01
1.383153e-01
1.366921e-01
1.351708e-01
1.337495e-01
1.324266e-01
1.312009e-01
1.300712e-01
1.290365e-01
1.280961e-01
1.272493e-01
1.264959e-01
1.258355e-01
1.252682e-01
1.247940e-01
1.244133e-01
1.241265e-01
1.239344e-01
1.238378e-01
9.805320e-01
9.412975e-01
9.021360e-01
8.634011e-01
8.254113e-01
7.884392e-01
7.527047e-01
7.183737e-01
6.855609e-01
6.543345e-01
6.247232e-01
5.967230e-01
5.703048e-01
5.454206e-01
5.220090e-01
5.000000e-01
4.793184e-01
4.598871e-01
4.416289e-01
4.244682e-01
4.083323e-01
3.931515e-01
3.788603e-01
3.653969e-01
3.527040e-01
3.407278e-01
3.294188e-01
3.187312e-01
3.086226e-01
2.990540e-01
2.899893e-01
2.813954e-01
2.732420e-01
2.655009e-01
2.581463e-01
2.511545e-01
2.445036e-01
2.381735e-01
2.321456e-01
2.264027e-01
2.209292e-01
2.157105e-01
2.107330e-01
2.059845e-01
2.014535e-01
1.971294e-01
1.930023e-01
1.890633e-01
1.853041e-01
1.817167e-01
1.782942e-01
1.750299e-01
1.719177e-01
1.689520e-01
1.661275e-01
1.634396e-01
1.608837e-01
1.584559e-01
1.561523e-01
1.539697e-01
1.519048e-01
1.499550e-01
1.481175e-01
1.463902e-01
1.447710e-01
1.432579e-01
1.418495e-01
1.405444e-01
1.393413e-01
1.382393e-01
1.372375e-01
1.363355e-01
1.355329e-01
1.348293e-01
1.342248e-01
1.337196e-01
1.333139e-01
1.330083e-01
1.328036e-01
1.327006e-01
9.817772e-01
9.450326e-01
9.082985e-01
8.718725e-01
8.360270e-01
8.010001e-01
7.669903e-01
7.341540e-01
7.026062e-01
6.724238e-01
6.436497e-01
6.162981e-01
5.903597e-01
5.658068e-01
5.425979e-01
5.206816e-01
5.000000e-01
4.804913e-01
4.620921e-01
4.447386e-01
4.283681e-01
4.129201e-01
3.983362e-01
3.845611e-01
3.715424e-01
3.592311e-01
3.475811e-01
3.365497e-01
3.260967e-01
3.161853e-01
3.067810e-01
2.978521e-01
2.893691e-01
2.813047e-01
2.736338e-01
2.663332e-01
2.593812e-01
2.527580e-01
2.464452e-01
2.404257e-01
2.346840e-01
2.292053e-01
2.239763e-01
2.189845e-01
2.142182e-01
2.096670e-01
2.053207e-01
2.011704e-01
1.972074e-01
1.934240e-01
1.898128e-01
1.863672e-01
1.830808e-01
1.799480e-01
1.769634e-01
1.741222e-01
1.714197e-01
1.688519e-01
1.664149e-01
1.641053e-01
1.619198e-01
1.598555e-01
1.579099e-01
1.560805e-01
1.543653e-01
1.527623e-01
1.512700e-01
1.498869e-01
1.486118e-01
1.474436e-01
1.463817e-01
1.454254e-01
1.445743e-01
1.438283e-01
1.431873e-01
1.426515e-01
1.422212e-01
1.418972e-01
1.416800e-01
1.415708e-01
9.828793e-01
9.483413e-01
9.137677e-01
8.794112e-01
8.455059e-01
8.122607e-01
7.798538e-01
7.484306e-01
7.181031e-01
6.889522e-01
6.610296e-01
6.343620e-01
6.089549e-01
5.847965e-01
5.618611e-01
5.401129e-01
5.195087e-01
5.000000e-01
4.815356e-01
4.640625e-01
4.475278e-01
4.318789e-01
4.170649e-01
4.030365e-01
3.897468e-01
3.771510e-01
3.652070e-01
3.538750e-01
3.431177e-01
3.329004e-01
3.231905e-01
3.139577e-01
3.051738e-01
2.968125e-01
2.888496e-01
2.812623e-01
2.740297e-01
2.671322e-01
2.605519e-01
2.542718e-01
2.482765e-01
2.425514e-01
2.370833e-01
2.318595e-01
2.268687e-01
2.221000e-01
2.175435e-01
2.131901e-01
2.090311e-01
2.050587e-01
2.012654e-01
1.976444e-01
1.941895e-01
1.908947e-01
1.877548e-01
1.847646e-01
1.819196e-01
1.792156e-01
1.766486e-01
1.742152e-01
1.719119e-01
1.697360e-01
1.676847e-01
1.657556e-01
1.639465e-01
1.622555e-01
1.606810e-01
1.592215e-01
1.578758e-01
1.566429e-01
1.555219e-01
1.545124e-01
1.536138e-01
1.528261e-01
1.521492e-01
1.515834e-01
1.511291e-01
1.507868e-01
1.505575e-01
1.504421e-01
9.838613e-01
9.512922e-01
9.186532e-01
8.861605e-01
8.540170e-01
8.224060e-01
7.914874e-01
7.613952e-01
7.322367e-01
7.040931e-01
6.770215e-01
6.510570e-01
6.262157e-01
6.024979e-01
5.798908e-01
5.583711e-01
5.379079e-01
5.184644e-01
5.000000e-01
4.824715e-01
4.658346e-01
4.500446e-01
4.350573e-01
4.208294e-01
4.073192e-01
3.944863e-01
3.822923e-01
3.707009e-01
3.596776e-01
3.491899e-01
3.392071e-01
3.297008e-01
3.206441e-01
3.120119e-01
3.037809e-01
2.959291e-01
2.884363e-01
2.812835e-01
2.744530e-01
2.679284e-01
2.616943e-01
2.557366e-01
2.500419e-01
2.445980e-01
2.393933e-01
2.344172e-01
2.296598e-01
2.251118e-01
2.207648e-01
2.166106e-01
2.126420e-01
2.088520e-01
2.052343e-01
2.017830e-01
1.984926e-01
1.953581e-01
1.923749e-01
1.895386e-01
1.868453e-01
1.842914e-01
1.818736e-01
1.795888e-01
1.774345e-01
1.754080e-01
1.735073e-01
1.717304e-01
1.700756e-01
1.685415e-01
1.671267e-01
1.658304e-01
1.646516e-01
1.635899e-01
1.626449e-01
1.618163e-01
1.611043e-01
1.605091e-01
1.600311e-01
1.596711e-01
1.594298e-01
1.593085e-01
9.847420e-01
9.539401e-01
9.230428e-01
8.922365e-01
8.616977e-01
8.315883e-01
8.020515e-01
7.732102e-01
7.451659e-01
7.179982e-01
6.917667e-01
6.665118e-01
6.422575e-01