# vtk DataFile Version 3.0
QUICK_DC(JC)
ASCII
DATASET STRUCTURED_GRID
DIMENSIONS 41 41 1
POINTS 1681 double
0.000000e+00 0.000000e+00 0.0
2.500000e-02 0.000000e+00 0.0
5.000000e-02 0.000000e+00 0.0
7.500000e-02 0.000000e+00 0.0
1.000000e-01 0.000000e+00 0.0
1.250000e-01 0.000000e+00 0.0
1.500000e-01 0.000000e+00 0.0
1.750000e-01 0.000000e+00 0.0
2.000000e-01 0.000000e+00 0.0
2.250000e-01 0.000000e+00 0.0
2.500000e-01 0.000000e+00 0.0
2.750000e-01 0.000000e+00 0.0
3.000000e-01 0.000000e+00 0.0
3.250000e-01 0.000000e+00 0.0
3.500000e-01 0.000000e+00 0.0
3.750000e-01 0.000000e+00 0.0
4.000000e-01 0.000000e+00 0.0
4.250000e-01 0.000000e+00 0.0
4.500000e-01 0.000000e+00 0.0
4.750000e-01 0.000000e+00 0.0
5.000000e-01 0.000000e+00 0.0
5.250000e-01 0.000000e+00 0.0
5.500000e-01 0.000000e+00 0.0
5.750000e-01 0.000000e+00 0.0
6.000000e-01 0.000000e+00 0.0
6.250000e-01 0.000000e+00 0.0
6.500000e-01 0.000000e+00 0.0
6.750000e-01 0.000000e+00 0.0
7.000000e-01 0.000000e+00 0.0
7.250000e-01 0.000000e+00 0.0
7.500000e-01 0.000000e+00 0.0
7.750000e-01 0.000000e+00 0.0
8.000000e-01 0.000000e+00 0.0
8.250000e-01 0.000000e+00 0.0
8.500000e-01 0.000000e+00 0.0
8.750000e-01 0.000000e+00 0.0
9.000000e-01 0.000000e+00 0.0
9.250000e-01 0.000000e+00 0.0
9.500000e-01 0.000000e+00 0.0
9.750000e-01 0.000000e+00 0.0
1.000000e+00 0.000000e+00 0.0
0.000000e+00 2.500000e-02 0.0
2.500000e-02 2.500000e-02 0.0
5.000000e-02 2.500000e-02 0.0
7.500000e-02 2.500000e-02 0.0
1.000000e-01 2.500000e-02 0.0
1.250000e-01 2.500000e-02 0.0
1.500000e-01 2.500000e-02 0.0
1.750000e-01 2.500000e-02 0.0
2.000000e-01 2.500000e-02 0.0
2.250000e-01 2.500000e-02 0.0
2.500000e-01 2.500000e-02 0.0
2.750000e-01 2.500000e-02 0.0
3.000000e-01 2.500000e-02 0.0
3.250000e-01 2.500000e-02 0.0
3.500000e-01 2.500000e-02 0.0
3.750000e-01 2.500000e-02 0.0
4.000000e-01 2.500000e-02 0.0
4.250000e-01 2.500000e-02 0.0
4.500000e-01 2.500000e-02 0.0
4.750000e-01 2.500000e-02 0.0
5.000000e-01 2.500000e-02 0.0
5.250000e-01 2.500000e-02 0.0
5.500000e-01 2.500000e-02 0.0
5.750000e-01 2.500000e-02 0.0
6.000000e-01 2.500000e-02 0.0
6.250000e-01 2.500000e-02 0.0
6.500000e-01 2.500000e-02 0.0
6.750000e-01 2.500000e-02 0.0
7.000000e-01 2.500000e-02 0.0
7.250000e-01 2.500000e-02 0.0
7.500000e-01 2.500000e-02 0.0
7.750000e-01 2.500000e-02 0.0
8.000000e-01 2.500000e-02 0.0
8.250000e-01 2.500000e-02 0.0
8.500000e-01 2.500000e-02 0.0
8.750000e-01 2.500000e-02 0.0
9.000000e-01 2.500000e-02 0.0
9.250000e-01 2.500000e-02 0.0
9.500000e-01 2.500000e-02 0.0
9.750000e-01 2.500000e-02 0.0
1.000000e+00 2.500000e-02 0.0
0.000000e+00 5.000000e-02 0.0
2.500000e-02 5.000000e-02 0.0
5.000000e-02 5.000000e-02 0.0
7.500000e-02 5.000000e-02 0.0
1.000000e-01 5.000000e-02 0.0
1.250000e-01 5.000000e-02 0.0
1.500000e-01 5.000000e-02 0.0
1.750000e-01 5.000000e-02 0.0
2.000000e-01 5.000000e-02 0.0
2.250000e-01 5.000000e-02 0.0
2.500000e-01 5.000000e-02 0.0
2.750000e-01 5.000000e-02 0.0
3.000000e-01 5.000000e-02 0.0
3.250000e-01 5.000000e-02 0.0
3.500000e-01 5.000000e-02 0.0
3.750000e-01 5.000000e-02 0.0
4.000000e-01 5.000000e-02 0.0
4.250000e-01 5.000000e-02 0.0
4.500000e-01 5.000000e-02 0.0
4.750000e-01 5.000000e-02 0.0
5.000000e-01 5.000000e-02 0.0
5.250000e-01 5.000000e-02 0.0
5.500000e-01 5.000000e-02 0.0
5.750000e-01 5.000000e-02 0.0
6.000000e-01 5.000000e-02 0.0
6.250000e-01 5.000000e-02 0.0
6.500000e-01 5.000000e-02 0.0
6.750000e-01 5.000000e-02 0.0
7.000000e-01 5.000000e-02 0.0
7.250000e-01 5.000000e-02 0.0
7.500000e-01 5.000000e-02 0.0
7.750000e-01 5.000000e-02 0.0
8.000000e-01 5.000000e-02 0.0
8.250000e-01 5.000000e-02 0.0
8.500000e-01 5.000000e-02 0.0
8.750000e-01 5.000000e-02 0.0
9.000000e-01 5.000000e-02 0.0
9.250000e-01 5.000000e-02 0.0
9.500000e-01 5.000000e-02 0.0
9.750000e-01 5.000000e-02 0.0
1.000000e+00 5.000000e-02 0.0
0.000000e+00 7.500000e-02 0.0
2.500000e-02 7.500000e-02 0.0
5.000000e-02 7.500000e-02 0.0
7.500000e-02 7.500000e-02 0.0
1.000000e-01 7.500000e-02 0.0
1.250000e-01 7.500000e-02 0.0
1.500000e-01 7.500000e-02 0.0
1.750000e-01 7.500000e-02 0.0
2.000000e-01 7.500000e-02 0.0
2.250000e-01 7.500000e-02 0.0
2.500000e-01 7.500000e-02 0.0
2.750000e-01 7.500000e-02 0.0
3.000000e-01 7.500000e-02 0.0
3.250000e-01 7.500000e-02 0.0
3.500000e-01 7.500000e-02 0.0
3.750000e-01 7.500000e-02 0.0
4.000000e-01 7.500000e-02 0.0
4.250000e-01 7.500000e-02 0.0
4.500000e-01 7.500000e-02 0.0
4.750000e-01 7.500000e-02 0.0
5.000000e-01 7.500000e-02 0.0
5.250000e-01 7.500000e-02 0.0
5.500000e-01 7.500000e-02 0.0
5.750000e-01 7.500000e-02 0.0
6.000000e-01 7.500000e-02 0.0
6.250000e-01 7.500000e-02 0.0
6.500000e-01 7.500000e-02 0.0
6.750000e-01 7.500000e-02 0.0
7.000000e-01 7.500000e-02 0.0
7.250000e-01 7.500000e-02 0.0
7.500000e-01 7.500000e-02 0.0
7.750000e-01 7.500000e-02 0.0
8.000000e-01 7.500000e-02 0.0
8.250000e-01 7.500000e-02 0.0
8.500000e-01 7.500000e-02 0.0
8.750000e-01 7.500000e-02 0.0
9.000000e-01 7.500000e-02 0.0
9.250000e-01 7.500000e-02 0.0
9.500000e-01 7.500000e-02 0.0
9.750000e-01 7.500000e-02 0.0
1.000000e+00 7.500000e-02 0.0
0.000000e+00 1.000000e-01 0.0
2.500000e-02 1.000000e-01 0.0
5.000000e-02 1.000000e-01 0.0
7.500000e-02 1.000000e-01 0.0
1.000000e-01 1.000000e-01 0.0
1.250000e-01 1.000000e-01 0.0
1.500000e-01 1.000000e-01 0.0
1.750000e-01 1.000000e-01 0.0
2.000000e-01 1.000000e-01 0.0
2.250000e-01 1.000000e-01 0.0
2.500000e-01 1.000000e-01 0.0
2.750000e-01 1.000000e-01 0.0
3.000000e-01 1.000000e-01 0.0
3.250000e-01 1.000000e-01 0.0
3.500000e-01 1.000000e-01 0.0
3.750000e-01 1.000000e-01 0.0
4.000000e-01 1.000000e-01 0.0
4.250000e-01 1.000000e-01 0.0
4.500000e-01 1.000000e-01 0.0
4.750000e-01 1.000000e-01 0.0
5.000000e-01 1.000000e-01 0.0
5.250000e-01 1.000000e-01 0.0
5.500000e-01 1.000000e-01 0.0
5.750000e-01 1.000000e-01 0.0
6.000000e-01 1.000000e-01 0.0
6.250000e-01 1.000000e-01 0.0
6.500000e-01 1.000000e-01 0.0
6.750000e-01 1.000000e-01 0.0
7.000000e-01 1.000000e-01 0.0
7.250000e-01 1.000000e-01 0.0
7.500000e-01 1.000000e-01 0.0
7.750000e-01 1.000000e-01 0.0
8.000000e-01 1.000000e-01 0.0
8.250000e-01 1.000000e-01 0.0
8.500000e-01 1.000000e-01 0.0
8.750000e-01 1.000000e-01 0.0
9.000000e-01 1.000000e-01 0.0
9.250000e-01 1.000000e-01 0.0
9.500000e-01 1.000000e-01 0.0
9.750000e-01 1.000000e-01 0.0
1.000000e+00 1.000000e-01 0.0
0.000000e+00 1.250000e-01 0.0
2.500000e-02 1.250000e-01 0.0
5.000000e-02 1.250000e-01 0.0
7.500000e-02 1.250000e-01 0.0
1.000000e-01 1.250000e-01 0.0
1.250000e-01 1.250000e-01 0.0
1.500000e-01 1.250000e-01 0.0
1.750000e-01 1.250000e-01 0.0
2.000000e-01 1.250000e-01 0.0
2.250000e-01 1.250000e-01 0.0
2.500000e-01 1.250000e-01 0.0
2.750000e-01 1.250000e-01 0.0
3.000000e-01 1.250000e-01 0.0
3.250000e-01 1.250000e-01 0.0
3.500000e-01 1.250000e-01 0.0
3.750000e-01 1.250000e-01 0.0
4.000000e-01 1.250000e-01 0.0
4.250000e-01 1.250000e-01 0.0
4.500000e-01 1.250000e-01 0.0
4.750000e-01 1.250000e-01 0.0
5.000000e-01 1.250000e-01 0.0
5.250000e-01 1.250000e-01 0.0
5.500000e-01 1.250000e-01 0.0
5.750000e-01 1.250000e-01 0.0
6.000000e-01 1.250000e-01 0.0
6.250000e-01 1.250000e-01 0.0
6.500000e-01 1.250000e-01 0.0
6.750000e-01 1.250000e-01 0.0
7.000000e-01 1.250000e-01 0.0
7.250000e-01 1.250000e-01 0.0
7.500000e-01 1.250000e-01 0.0
7.750000e-01 1.250000e-01 0.0
8.000000e-01 1.250000e-01 0.0
8.250000e-01 1.250000e-01 0.0
8.500000e-01 1.250000e-01 0.0
8.750000e-01 1.250000e-01 0.0
9.000000e-01 1.250000e-01 0.0
9.250000e-01 1.250000e-01 0.0
9.500000e-01 1.250000e-01 0.0
9.750000e-01 1.250000e-01 0.0
1.000000e+00 1.250000e-01 0.0
0.000000e+00 1.500000e-01 0.0
2.500000e-02 1.500000e-01 0.0
5.000000e-02 1.500000e-01 0.0
7.500000e-02 1.500000e-01 0.0
1.000000e-01 1.500000e-01 0.0
1.250000e-01 1.500000e-01 0.0
1.500000e-01 1.500000e-01 0.0
1.750000e-01 1.500000e-01 0.0
2.000000e-01 1.500000e-01 0.0
2.250000e-01 1.500000e-01 0.0
2.500000e-01 1.500000e-01 0.0
2.750000e-01 1.500000e-01 0.0
3.000000e-01 1.500000e-01 0.0
3.250000e-01 1.500000e-01 0.0
3.500000e-01 1.500000e-01 0.0
3.750000e-01 1.500000e-01 0.0
4.000000e-01 1.500000e-01 0.0
4.250000e-01 1.500000e-01 0.0
4.500000e-01 1.500000e-01 0.0
4.750000e-01 1.500000e-01 0.0
5.000000e-01 1.500000e-01 0.0
5.250000e-01 1.500000e-01 0.0
5.500000e-01 1.500000e-01 0.0
5.750000e-01 1.500000e-01 0.0
6.000000e-01 1.500000e-01 0.0
6.250000e-01 1.500000e-01 0.0
6.500000e-01 1.500000e-01 0.0
6.750000e-01 1.500000e-01 0.0
7.000000e-01 1.500000e-01 0.0
7.250000e-01 1.500000e-01 0.0
7.500000e-01 1.500000e-01 0.0
7.750000e-01 1.500000e-01 0.0
8.000000e-01 1.500000e-01 0.0
8.250000e-01 1.500000e-01 0.0
8.500000e-01 1.500000e-01 0.0
8.750000e-01 1.500000e-01 0.0
9.000000e-01 1.500000e-01 0.0
9.250000e-01 1.500000e-01 0.0
9.500000e-01 1.500000e-01 0.0
9.750000e-01 1.500000e-01 0.0
1.000000e+00 1.500000e-01 0.0
0.000000e+00 1.750000e-01 0.0
2.500000e-02 1.750000e-01 0.0
5.000000e-02 1.750000e-01 0.0
7.500000e-02 1.750000e-01 0.0
1.000000e-01 1.750000e-01 0.0
1.250000e-01 1.750000e-01 0.0
1.500000e-01 1.750000e-01 0.0
1.750000e-01 1.750000e-01 0.0
2.000000e-01 1.750000e-01 0.0
2.250000e-01 1.750000e-01 0.0
2.500000e-01 1.750000e-01 0.0
2.750000e-01 1.750000e-01 0.0
3.000000e-01 1.750000e-01 0.0
3.250000e-01 1.750000e-01 0.0
3.500000e-01 1.750000e-01 0.0
3.750000e-01 1.750000e-01 0.0
4.000000e-01 1.750000e-01 0.0
4.250000e-01 1.750000e-01 0.0
4.500000e-01 1.750000e-01 0.0
4.750000e-01 1.750000e-01 0.0
5.000000e-01 1.750000e-01 0.0
5.250000e-01 1.750000e-01 0.0
5.500000e-01 1.750000e-01 0.0
5.750000e-01 1.750000e-01 0.0
6.000000e-01 1.750000e-01 0.0
6.250000e-01 1.750000e-01 0.0
6.500000e-01 1.750000e-01 0.0
6.750000e-01 1.750000e-01 0.0
7.000000e-01 1.750000e-01 0.0
7.250000e-01 1.750000e-01 0.0
7.500000e-01 1.750000e-01 0.0
7.750000e-01 1.750000e-01 0.0
8.000000e-01 1.750000e-01 0.0
8.250000e-01 1.750000e-01 0.0
8.500000e-01 1.750000e-01 0.0
8.750000e-01 1.750000e-01 0.0
9.000000e-01 1.750000e-01 0.0
9.250000e-01 1.750000e-01 0.0
9.500000e-01 1.750000e-01 0.0
9.750000e-01 1.750000e-01 0.0
1.000000e+00 1.750000e-01 0.0
0.000000e+00 2.000000e-01 0.0
[...]
CELL_DATA 1600
SCALARS Temperature double 1
LOOKUP_TABLE default
5.000000e-01
2.107909e-01
1.149814e-01
7.452440e-02
5.337177e-02
4.054038e-02
3.197607e-02
2.588917e-02
2.136953e-02
1.790367e-02
1.517920e-02
1.299491e-02
1.121540e-02
9.746237e-03
8.519601e-03
7.485588e-03
6.606698e-03
5.854240e-03
5.205918e-03
4.644166e-03
4.154978e-03
3.727062e-03
3.351231e-03
3.019946e-03
2.726975e-03
2.467135e-03
2.236089e-03
2.030201e-03
1.846412e-03
1.682157e-03
1.535296e-03
1.404065e-03
1.287059e-03
1.183214e-03
1.091828e-03
1.012601e-03
9.457065e-04
8.919101e-04
8.527495e-04
8.307965e-04
7.892091e-01
5.000000e-01
3.332681e-01
2.361339e-01
1.760710e-01
1.364684e-01
1.088773e-01
8.879022e-02
7.365212e-02
6.192777e-02
5.264611e-02
4.516562e-02
3.904673e-02
3.397883e-02
2.973663e-02
2.615302e-02
2.310163e-02
2.048529e-02
1.822816e-02
1.627025e-02
1.456362e-02
1.306948e-02
1.175622e-02
1.059785e-02
9.572836e-03
8.663249e-03
7.854070e-03
7.132683e-03
6.488475e-03
5.912528e-03
5.397401e-03
4.936967e-03
4.526329e-03
4.161795e-03
3.840933e-03
3.562712e-03
3.327762e-03
3.138794e-03
3.001225e-03
2.924101e-03
8.850186e-01
6.667319e-01
5.000000e-01
3.812916e-01
2.974174e-01
2.371405e-01
1.927382e-01
1.591953e-01
1.332674e-01
1.128205e-01
9.641645e-02
8.306108e-02
7.204989e-02
6.287224e-02
5.515031e-02
4.859944e-02
4.300159e-02
3.818733e-02
3.402325e-02
3.040309e-02
2.724134e-02
2.446849e-02
2.202761e-02
1.987167e-02
1.796162e-02
1.626480e-02
1.475380e-02
1.340553e-02
1.220052e-02
1.112242e-02
1.015751e-02
9.294527e-03
8.524460e-03
7.840521e-03
7.238263e-03
6.715849e-03
6.274551e-03
5.919535e-03
5.661035e-03
5.516100e-03
9.254756e-01
7.638661e-01
6.187084e-01
5.000000e-01
4.066582e-01
3.340587e-01
2.774122e-01
2.327874e-01
1.972104e-01
1.684951e-01
1.450442e-01
1.256845e-01
1.095454e-01
9.597268e-02
8.446834e-02
7.464851e-02
6.621366e-02
5.892734e-02
5.260100e-02
4.708278e-02
4.224931e-02
3.799951e-02
3.424999e-02
3.093147e-02
2.798609e-02
2.536524e-02
2.302794e-02
2.093957e-02
1.907084e-02
1.739705e-02
1.589751e-02
1.455515e-02
1.335634e-02
1.229083e-02
1.135197e-02
1.053713e-02
9.848501e-03
9.294307e-03
8.890672e-03
8.664326e-03
9.466282e-01
8.239290e-01
7.025826e-01
5.933418e-01
5.000000e-01
4.223183e-01
3.583742e-01
3.058474e-01
2.625779e-01
2.267437e-01
1.968751e-01
1.718092e-01
1.506320e-01
1.326252e-01
1.172219e-01
1.039720e-01
9.251561e-02
8.256310e-02
7.387938e-02
6.627245e-02
5.958432e-02
5.368422e-02
4.846322e-02
4.383012e-02
3.970816e-02
3.603247e-02
3.274808e-02
2.980830e-02
2.717349e-02
2.481008e-02
2.268990e-02
2.078968e-02
1.909083e-02
1.757943e-02
1.624655e-02
1.508889e-02
1.410994e-02
1.332173e-02
1.274745e-02
1.242534e-02
9.594596e-01
8.635316e-01
7.628595e-01
6.659413e-01
5.776817e-01
5.000000e-01
4.329590e-01
3.756898e-01
3.269743e-01
2.855552e-01
2.502781e-01
2.201407e-01
1.942984e-01
1.720498e-01
1.528166e-01
1.361231e-01
1.215775e-01
1.088564e-01
9.769227e-02
8.786222e-02
7.918030e-02
7.149046e-02
6.466126e-02
5.858147e-02
5.315669e-02
4.830652e-02
4.396235e-02
4.006555e-02
3.656611e-02
3.342149e-02
3.059589e-02
2.805969e-02
2.578922e-02
2.376687e-02
2.198152e-02
2.042947e-02
1.911604e-02
1.805787e-02
1.728657e-02
1.685385e-02
9.680239e-01
8.911227e-01
8.072618e-01
7.225878e-01
6.416258e-01
5.670410e-01
5.000000e-01
4.406731e-01
3.886615e-01
3.432938e-01
3.038075e-01
2.694495e-01
2.395251e-01
2.134167e-01
1.905872e-01
1.705755e-01
1.529884e-01
1.374916e-01
1.238014e-01
1.116767e-01
1.009125e-01
9.133419e-02
8.279249e-02
7.515969e-02
6.832618e-02
6.219777e-02
5.669341e-02
5.174337e-02
4.728779e-02
4.327553e-02
3.966337e-02
3.641552e-02
3.350339e-02
3.090585e-02
2.860988e-02
2.661182e-02
2.491942e-02
2.355499e-02
2.255995e-02
2.200152e-02
9.741108e-01
9.112098e-01
8.408047e-01
7.672126e-01
6.941526e-01
6.243102e-01
5.593269e-01
5.000000e-01
4.465329e-01
3.987556e-01
3.562896e-01
3.186598e-01
2.853639e-01
2.559124e-01
2.298497e-01
2.067636e-01
1.862871e-01
1.680975e-01
1.519124e-01
1.374861e-01
1.246051e-01
1.130843e-01
1.027626e-01
9.350064e-02
8.517705e-02
7.768651e-02
7.093753e-02
6.485076e-02
5.935760e-02
5.439912e-02
4.992533e-02
4.589473e-02
4.227427e-02
3.903974e-02
3.617668e-02
3.368207e-02
3.156695e-02
2.986033e-02
2.861501e-02
2.791587e-02
9.786305e-01
9.263479e-01
8.667326e-01
8.027896e-01
7.374221e-01
6.730257e-01
6.113385e-01
5.534671e-01
5.000000e-01
4.511435e-01
4.068456e-01
3.668943e-01
3.309890e-01
2.987891e-01
2.699453e-01
2.441188e-01
2.209913e-01
2.002707e-01
1.816925e-01
1.650197e-01
1.500411e-01
1.365696e-01
1.244396e-01
1.135051e-01
1.036376e-01
9.472390e-02
8.666483e-02
7.937341e-02
7.277393e-02
6.680096e-02
6.139872e-02
5.652088e-02
5.213062e-02
4.820131e-02
4.471778e-02
4.167842e-02
3.909848e-02
3.701495e-02
3.549359e-02
3.463913e-02
9.820963e-01
9.380722e-01
8.871795e-01
8.315049e-01
7.732563e-01
7.144448e-01
6.567062e-01
6.012444e-01
5.488565e-01
5.000000e-01
4.548722e-01
4.134840e-01
3.757221e-01
3.413958e-01
3.102722e-01
2.820995e-01
2.566236e-01
2.335979e-01
2.127890e-01
1.939804e-01
1.769735e-01
1.615876e-01
1.476597e-01
1.350432e-01
1.236070e-01
1.132340e-01
1.038204e-01
9.527422e-02
8.751457e-02
8.047121e-02
7.408398e-02
6.830281e-02
6.308814e-02
5.841183e-02
5.425887e-02
5.063004e-02
4.754589e-02
4.505270e-02
4.323091e-02
4.220726e-02
9.848208e-01
9.473539e-01
9.035835e-01
8.549558e-01
8.031249e-01
7.497219e-01
6.961925e-01
6.437104e-01
5.931544e-01
5.451279e-01
5.000000e-01
4.579547e-01
4.190369e-01
3.831935e-01
3.503053e-01
3.202125e-01
2.927327e-01
2.676742e-01
2.448450e-01
2.240583e-01
2.051365e-01
1.879135e-01
1.722352e-01
1.579603e-01
1.449598e-01
1.331170e-01
1.223267e-01
1.124947e-01
1.035375e-01
9.538189e-02
8.796497e-02
8.123438e-02
7.514903e-02
6.968041e-02
6.481476e-02
6.055633e-02
5.693223e-02
5.399941e-02
5.185472e-02
5.064906e-02
9.870051e-01
9.548344e-01
9.169389e-01
8.743155e-01
8.281908e-01
7.798593e-01
7.305505e-01
6.813402e-01
6.331057e-01
5.865160e-01
5.420453e-01
5.000000e-01
4.605493e-01
4.237565e-01
3.896058e-01
3.580258e-01
3.289074e-01
3.021184e-01
2.775137e-01
2.549431e-01
2.342569e-01
2.153095e-01
1.979618e-01
1.820829e-01
1.675508e-01
1.542529e-01
1.420861e-01
1.309572e-01
1.207824e-01
1.114878e-01
1.030095e-01
9.529464e-02
8.830191e-02
8.200377e-02
7.638894e-02
7.146639e-02
6.727110e-02
6.387219e-02
6.138460e-02
5.998545e-02
9.887846e-01
9.609533e-01
9.279501e-01
8.904546e-01
8.493680e-01
8.057016e-01
7.604749e-01
7.146361e-01
6.690110e-01
6.242779e-01
5.809631e-01
5.394507e-01
5.000000e-01
4.627664e-01
4.278221e-01
3.951752e-01
3.647866e-01
3.365832e-01
3.104693e-01
2.863351e-01
2.640631e-01
2.435332e-01
2.246258e-01
2.072250e-01
1.912198e-01
1.765054e-01
1.629845e-01
1.505672e-01
1.391725e-01
1.287278e-01
1.191704e-01
1.104484e-01
1.025221e-01
9.536626e-02
8.897345e-02
8.335873e-02
7.856630e-02
7.467895e-02
7.183139e-02
7.022892e-02
9.902538e-01
9.660212e-01
9.371278e-01
9.040273e-01
8.673748e-01
8.279502e-01
7.865833e-01
7.440876e-01
7.012109e-01
6.586042e-01
6.168065e-01
5.762435e-01
5.372336e-01
5.000000e-01
4.646851e-01
4.313649e-01
4.000628e-01
3.707617e-01
3.434145e-01
3.179528e-01
2.942936e-01
2.723453e-01
2.520115e-01
2.331943e-01
2.157973e-01
1.997271e-01
1.848946e-01
1.712167e-01
1.586170e-01
1.470269e-01
1.363867e-01
1.266474e-01
1.177723e-01
1.097403e-01
1.025491e-01
9.622124e-02
9.081162e-02
8.641814e-02
8.319689e-02
8.138311e-02
9.914804e-01
9.702634e-01
9.448497e-01
9.155317e-01
8.827781e-01
8.471834e-01
8.094128e-01
7.701503e-01
7.300547e-01
6.897278e-01
6.496947e-01
6.103942e-01
5.721779e-01
5.353149e-01
5.000000e-01
4.663638e-01
4.344831e-01
4.043909e-01
3.760855e-01
3.495388e-01
3.247029e-01
3.015158e-01
2.799062e-01
2.597972e-01
2.411093e-01
2.237629e-01
2.076802e-01
1.927869e-01
1.790137e-01
1.662980e-01
1.545853e-01
1.438311e-01
1.340036e-01
1.250869e-01
1.170857e-01
1.100314e-01
1.039909e-01
9.907870e-02
9.547371e-02
9.344268e-02
9.925144e-01
9.738470e-01
9.514006e-01
9.253515e-01
8.960280e-01
8.638769e-01
8.294245e-01
7.932364e-01
7.558812e-01
7.179005e-01
6.797875e-01
6.419742e-01
6.048248e-01
5.686351e-01
5.336362e-01
5.000000e-01
4.678466e-01
4.372517e-01
4.082544e-01
3.808639e-01
3.550660e-01
3.308286e-01
3.081061e-01
2.868440e-01
2.669815e-01
2.484548e-01
2.311992e-01
2.151515e-01
2.002516e-01
1.864447e-01
1.736831e-01
1.619288e-01
1.511563e-01
1.413568e-01
1.325431e-01
1.247569e-01
1.180784e-01
1.126402e-01
1.086453e-01
1.063932e-01
9.933933e-01
9.768984e-01
9.569984e-01
9.337863e-01
9.074844e-01
8.784225e-01
8.470116e-01
8.137129e-01
7.790087e-01
7.433764e-01
7.072673e-01
6.710926e-01
6.352134e-01
5.999372e-01
5.655169e-01
5.321534e-01
5.000000e-01
4.691673e-01
4.397291e-01
4.117281e-01
3.851813e-01
3.600851e-01
3.364196e-01
3.141527e-01
2.932433e-01
2.736449e-01
2.553073e-01
2.381799e-01
2.222135e-01
2.073628e-01
1.935886e-01
1.808608e-01
1.691618e-01
1.584912e-01
1.488714e-01
1.403557e-01
1.330391e-01
1.270731e-01
1.226861e-01
1.202115e-01
9.941458e-01
9.795147e-01
9.618127e-01
9.410727e-01
9.174369e-01
8.911436e-01
8.625084e-01
8.319026e-01
7.997293e-01
7.664021e-01
7.323258e-01
6.978816e-01
6.634169e-01
6.292383e-01
5.956091e-01
5.627483e-01
5.308328e-01
5.000000e-01
4.703525e-01
4.419615e-01
4.148721e-01
3.891067e-01
3.646699e-01
3.415518e-01
3.197312e-01
2.991789e-01
2.798608e-01
2.617398e-01
2.447788e-01
2.289433e-01
2.142040e-01
2.005402e-01
1.879435e-01
1.764233e-01
1.660126e-01
1.567777e-01
1.488294e-01
1.423393e-01
1.375621e-01
1.348658e-01
9.947941e-01
9.817718e-01
9.659768e-01
9.473990e-01
9.261206e-01
9.023077e-01
8.761986e-01
8.480877e-01
8.183075e-01
7.872110e-01
7.551550e-01
7.224863e-01
6.895308e-01
6.565855e-01
6.239145e-01
5.917457e-01
5.602710e-01
5.296476e-01
5.000000e-01
4.714234e-01
4.439865e-01
4.177355e-01
3.926973e-01
3.688829e-01
3.462906e-01
3.249089e-01
3.047194e-01
2.856996e-01
2.678254e-01
2.510741e-01
2.354273e-01
2.208748e-01
2.074187e-01
1.950790e-01
1.839010e-01
1.739647e-01
1.653976e-01
1.583925e-01
1.532310e-01
1.503160e-01
9.953558e-01
9.837297e-01
9.695969e-01
9.529172e-01
9.337276e-01
9.121378e-01
8.883233e-01
8.625140e-01
8.349803e-01
8.060196e-01
7.759418e-01
7.450570e-01
7.136650e-01
6.820473e-01
6.504612e-01
6.191362e-01
5.882720e-01
5.580386e-01
5.285767e-01
5.000001e-01
4.723973e-01
4.458349e-01
4.203596e-01
3.960019e-01
3.727783e-01
3.506945e-01
3.297480e-01
3.099307e-01
2.912321e-01
2.736420e-01
2.571537e-01
2.417684e-01
2.274995e-01
2.143789e-01
2.024648e-01
1.918517e-01
1.826851e-01
1.751792e-01
1.696431e-01
1.665145e-01
9.958450e-01
9.854364e-01
9.727587e-01
9.577507e-01
9.404157e-01
9.208197e-01
8.990875e-01
8.753949e-01
8.499589e-01
8.230266e-01
7.948636e-01
7.657432e-01
7.359369e-01
7.057064e-01
6.752972e-01
6.449341e-01
6.148188e-01
5.851281e-01
5.560136e-01
5.276028e-01
5.000001e-01
4.732886e-01
4.475327e-01
4.227798e-01
3.990634e-01
3.764054e-01
3.548184e-01
3.343090e-01
3.148802e-01
2.965344e-01
2.792775e-01
2.631225e-01
2.480948e-01
2.342389e-01
2.216266e-01
2.103680e-01
2.006267e-01
1.926390e-01
1.867415e-01
1.834065e-01
9.962729e-01
9.869305e-01
9.755315e-01
9.620005e-01
9.463158e-01
9.285096e-01
9.086659e-01
8.869158e-01
8.634305e-01
8.384125e-01
8.120866e-01
7.846906e-01
7.564669e-01
7.276548e-01
6.984843e-01
6.691716e-01
6.399150e-01
6.108934e-01
5.822646e-01
5.541653e-01
5.267116e-01
5.000001e-01
4.741096e-01
4.491026e-01
4.250276e-01
4.019212e-01
3.798107e-01
3.587164e-01
3.386546e-01
3.196408e-01
3.016932e-01
2.848372e-01
2.691107e-01
2.545713e-01
2.413049e-01
2.294376e-01
2.191515e-01
2.107054e-01
2.044630e-01
2.009307e-01
9.966488e-01
9.882438e-01
9.779724e-01
9.657500e-01
9.515368e-01
9.353388e-01
9.172076e-01
8.972374e-01
8.755605e-01
8.523404e-01
8.277649e-01
8.020384e-01
7.753743e-01
7.479887e-01
7.200939e-01
6.918940e-01
6.635806e-01
6.353302e-01
6.073029e-01
5.796406e-01
5.524676e-01
5.258906e-01
5.000001e-01
4.748711e-01
4.505653e-01
4.271325e-01
4.046133e-01
3.830412e-01
3.624452e-01
3.428536e-01
3.242968e-01
3.068128e-01
2.904523e-01
2.752860e-01
2.614146e-01
2.489802e-01
2.381838e-01
2.293063e-01
2.227384e-01
2.190196e-01
9.969801e-01
9.894022e-01
9.801284e-01
9.690686e-01
9.561699e-01
9.414186e-01
9.248404e-01
9.064995e-01
8.864951e-01
8.649570e-01
8.420399e-01
8.179173e-01
7.927751e-01
7.668059e-01
7.402030e-01
7.131562e-01
6.858475e-01
6.584484e-01
6.311173e-01
6.039983e-01
5.772205e-01
5.508977e-01
5.251292e-01
5.000002e-01
4.755834e-01
4.519404e-01
4.291237e-01
4.071789e-01
3.861471e-01
3.660686e-01
3.469862e-01
3.289500e-01
3.120235e-01
2.962910e-01
2.818675e-01
2.689117e-01
2.576431e-01
2.483645e-01
2.414930e-01
2.375999e-01
9.972730e-01
9.904272e-01
9.820384e-01
9.720140e-01
9.602919e-01
9.468434e-01
9.316740e-01
9.148231e-01
8.963626e-01
8.763932e-01
8.550404e-01
8.324495e-01
8.087805e-01
7.842029e-01
7.588909e-01
7.330188e-01
7.067569e-01
6.802691e-01
6.537097e-01
6.272220e-01
6.009369e-01
5.749728e-01
5.494351e-01
5.244170e-01
5.000002e-01
4.762562e-01
4.532480e-01
4.310321e-01
4.096608e-01
3.891858e-01
3.696616e-01
3.511504e-01
3.337282e-01
3.174926e-01
3.025731e-01
2.891445e-01
2.774446e-01
2.677980e-01
2.606467e-01
2.565927e-01
9.975329e-01
9.913368e-01
9.837353e-01
9.746349e-01
9.639677e-01
9.516937e-01
9.378025e-01
9.223137e-01
9.052764e-01
8.867663e-01
8.668833e-01
8.457475e-01
8.234949e-01
8.002733e-01
7.762374e-01
7.515456e-01
7.263555e-01
7.008214e-01
6.750915e-01
6.493058e-01
6.235950e-01
5.980792e-01
5.728679e-01
5.480600e-01
5.237442e-01
5.000002e-01
4.769000e-01
4.545097e-01
4.328918e-01
4.121087e-01
3.922257e-01
3.733167e-01
3.554698e-01
3.387956e-01
3.234379e-01
3.095873e-01
2.974995e-01
2.875195e-01
2.801139e-01
2.759133e-01
9.977639e-01
9.921460e-01
9.852463e-01
9.769722e-01
9.672521e-01
9.560379e-01
9.433069e-01
9.290628e-01
9.133356e-01
8.961800e-01
8.776737e-01
8.579143e-01
8.370160e-01
8.151059e-01
7.923203e-01
7.688013e-01
7.446932e-01
7.201397e-01
6.952811e-01
6.702525e-01
6.451820e-01
6.201898e-01
5.953872e-01
5.708767e-01
5.467525e-01
5.231005e-01
5.000003e-01
4.775263e-01
4.557501e-01
4.347436e-01
4.145827e-01
3.953518e-01
3.771509e-01
3.601031e-01
3.443658e-01
3.301450e-01
3.177137e-01
3.074366e-01
2.998033e-01
2.954708e-01
9.979698e-01
9.928674e-01
9.865946e-01
9.790607e-01
9.701920e-01
9.599348e-01
9.482571e-01
9.351498e-01
9.206272e-01
9.047264e-01
8.875059e-01
8.690434e-01
8.494334e-01
8.287839e-01
8.072138e-01
7.848491e-01
7.618207e-01
7.382608e-01
7.143010e-01
6.900699e-01
6.656915e-01
6.412842e-01
6.169594e-01
5.928217e-01
5.689685e-01
5.454909e-01
5.224744e-01
5.000003e-01
4.781484e-01
4.569990e-01
4.366374e-01
4.171582e-01
3.986724e-01
3.813150e-01
3.652566e-01
3.507177e-01
3.379878e-01
3.274504e-01
3.196163e-01
3.151674e-01
9.981536e-01
9.935117e-01
9.877997e-01
9.809295e-01
9.728270e-01
9.634345e-01
9.527129e-01
9.406432e-01
9.272269e-01
9.124863e-01
8.964634e-01
8.792185e-01
8.608284e-01
8.413839e-01
8.209871e-01
7.997492e-01
7.777872e-01
7.552219e-01
7.321753e-01
7.087686e-01
6.851205e-01
6.613461e-01
6.375554e-01
6.138535e-01
5.903398e-01
5.671088e-01
5.442506e-01
5.218523e-01
5.000004e-01
4.787828e-01
4.582933e-01
4.386359e-01
4.199316e-01
4.023268e-01
3.860044e-01
3.711989e-01
3.582151e-01
3.474540e-01
3.394463e-01
3.348962e-01
9.983179e-01
9.940877e-01
9.888780e-01
9.826035e-01
9.751907e-01
9.665794e-01
9.567255e-01
9.456020e-01
9.332002e-01
9.195300e-01
9.046193e-01
8.885134e-01
8.712734e-01
8.529743e-01
8.337030e-01
8.135563e-01
7.926382e-01
7.710576e-01
7.489268e-01
7.263589e-01
7.034664e-01
6.803600e-01
6.571472e-01
6.339321e-01
6.108149e-01
5.878921e-01
5.652571e-01
5.430018e-01
5.212180e-01
5.000004e-01
4.794502e-01
4.596799e-01
4.408199e-01
4.230269e-01
4.064956e-01
3.914732e-01
3.782789e-01
3.673302e-01
3.591755e-01
3.545394e-01
9.984648e-01
9.946030e-01
9.898431e-01
9.841034e-01
9.773113e-01
9.694055e-01
9.603381e-01
9.500763e-01
9.386029e-01
9.259177e-01
9.120367e-01
8.969921e-01
8.808311e-01
8.636148e-01
8.454161e-01
8.263182e-01
8.064127e-01
7.857972e-01
7.645738e-01
7.428474e-01
7.207235e-01
6.983077e-01
6.757041e-01
6.530147e-01
6.303392e-01
6.077751e-01
5.854182e-01
5.633635e-01
5.417076e-01
5.205507e-01
5.000005e-01
4.801770e-01
4.612192e-01
4.432934e-01
4.266050e-01
4.114129e-01
3.980499e-01
3.869479e-01
3.786721e-01
3.739645e-01
9.985961e-01
9.950636e-01
9.907065e-01
9.854463e-01
9.792121e-01
9.719423e-01
9.635867e-01
9.541076e-01
9.434814e-01
9.316995e-01
9.187678e-01
9.047075e-01
8.895536e-01
8.733546e-01
8.561707e-01
8.380729e-01
8.191408e-01
7.994613e-01
7.791266e-01
7.582329e-01
7.368788e-01
7.151640e-01
6.931883e-01
6.710511e-01
6.488506e-01
6.266843e-01
6.046491e-01
5.828427e-01
5.613651e-01
5.403210e-01
5.198240e-01
5.000005e-01
4.809972e-01
4.629890e-01
4.461911e-01
4.308733e-01
4.173804e-01
4.061578e-01
3.977851e-01
3.930200e-01
9.987133e-01
9.954747e-01
9.914773e-01
9.866460e-01
9.809119e-01
9.742138e-01
9.664998e-01
9.577290e-01
9.478726e-01
9.369150e-01
9.248539e-01
9.117009e-01
8.974805e-01
8.822301e-01
8.659987e-01
8.488458e-01
8.308402e-01
8.120583e-01
7.925830e-01
7.725020e-01
7.519067e-01
7.308906e-01
7.095490e-01
6.879777e-01
6.662730e-01
6.445313e-01
6.228502e-01
6.013287e-01
5.800695e-01
5.591811e-01
5.387818e-01
5.190039e-01
5.000005e-01
4.819546e-01
4.650899e-01
4.496861e-01
4.360989e-01
4.247855e-01
4.163383e-01
4.115285e-01
9.988173e-01
9.958400e-01
9.921624e-01
9.877129e-01
9.824249e-01
9.762377e-01
9.690988e-01
9.609649e-01
9.518031e-01
9.415923e-01
9.303235e-01
9.179999e-01
9.046371e-01
8.902628e-01
8.749159e-01
8.586458e-01
8.415112e-01
8.235790e-01
8.049230e-01
7.856229e-01
7.657628e-01
7.454303e-01
7.247155e-01
7.037104e-01
6.825088e-01
6.612056e-01
6.398981e-01
6.186862e-01
5.976744e-01
5.769742e-01
5.567076e-01
5.370120e-01
5.180465e-01
5.000006e-01
4.831058e-01
4.676507e-01
4.540006e-01
4.426231e-01
4.341215e-01
4.292786e-01
9.989092e-01
9.961623e-01
9.927667e-01
9.886542e-01
9.837602e-01
9.780253e-01
9.713968e-01
9.638297e-01
9.552882e-01
9.457466e-01
9.351903e-01
9.236157e-01
9.110308e-01
8.974548e-01
8.829178e-01
8.674601e-01
8.511314e-01
8.339900e-01
8.161014e-01
7.975374e-01
7.783754e-01
7.586970e-01
7.385871e-01
7.181341e-01
6.974284e-01
6.765635e-01
6.556355e-01
6.347447e-01
6.139968e-01
5.935056e-01
5.733962e-01
5.538101e-01
5.349113e-01
5.168954e-01
5.000006e-01
4.845231e-01
4.708366e-01
4.594178e-01
4.508794e-01
4.460133e-01
9.989895e-01
9.964434e-01
9.932930e-01
9.894730e-01
9.849215e-01
9.795806e-01
9.733976e-01
9.663266e-01
9.583295e-01
9.493771e-01
9.394501e-01
9.285393e-01
9.166464e-01
9.037834e-01
8.899727e-01
8.752469e-01
8.596477e-01
8.432254e-01
8.260381e-01
8.081508e-01
7.896343e-01
7.705645e-01
7.510217e-01
7.310900e-01
7.108572e-01
6.904142e-01
6.698564e-01
6.492836e-01
6.288024e-01
6.085281e-01
5.885883e-01
5.691279e-01
5.503151e-01
5.323505e-01
5.154781e-01
5.000006e-01
4.862989e-01
4.748572e-01
4.662963e-01
4.614154e-01
9.990592e-01
9.966846e-01
9.937413e-01
9.901680e-01
9.859058e-01
9.808984e-01
9.750935e-01
9.684445e-01
9.609116e-01
9.524630e-01
9.430756e-01
9.327358e-01
9.214398e-01
9.091938e-01
8.960139e-01
8.819259e-01
8.669648e-01
8.511741e-01
8.346056e-01
8.173178e-01
7.993759e-01
7.808508e-01
7.618183e-01
7.423589e-01
7.225572e-01
7.025022e-01
6.822879e-01
6.620136e-01
6.417863e-01
6.217224e-01
6.019514e-01
5.826208e-01
5.639023e-01
5.460006e-01
5.291646e-01
5.137023e-01
5.000006e-01
4.885500e-01
4.799775e-01
4.750883e-01
9.991217e-01
9.968875e-01
9.941089e-01
9.907320e-01
9.867013e-01
9.819619e-01
9.764619e-01
9.701541e-01
9.629974e-01
9.549580e-01
9.460099e-01
9.361359e-01
9.253281e-01
9.135881e-01
9.009268e-01
8.873647e-01
8.729313e-01
8.576646e-01
8.416110e-01
8.248239e-01
8.073638e-01
7.892972e-01
7.706961e-01
7.516376e-01
7.322040e-01
7.124823e-01
6.925650e-01
6.725511e-01
6.525475e-01
6.326713e-01
6.130534e-01
5.938435e-01
5.752158e-01
5.573782e-01
5.405835e-01
5.251440e-01
5.114512e-01
5.000006e-01
4.914240e-01
4.865311e-01
9.991941e-01
9.970566e-01
9.943883e-01
9.911487e-01
9.872840e-01
9.827388e-01
9.774608e-01
9.714022e-01
9.645209e-01
9.567814e-01
9.481558e-01
9.386245e-01
9.281765e-01