# vtk DataFile Version 3.0
QUICK_DC(JC)
ASCII
DATASET STRUCTURED_GRID
DIMENSIONS 81 81 1
POINTS 6561 double
0.000000e+00 0.000000e+00 0.0
1.250000e-02 0.000000e+00 0.0
2.500000e-02 0.000000e+00 0.0
3.750000e-02 0.000000e+00 0.0
5.000000e-02 0.000000e+00 0.0
6.250000e-02 0.000000e+00 0.0
7.500000e-02 0.000000e+00 0.0
8.750000e-02 0.000000e+00 0.0
1.000000e-01 0.000000e+00 0.0
1.125000e-01 0.000000e+00 0.0
1.250000e-01 0.000000e+00 0.0
1.375000e-01 0.000000e+00 0.0
1.500000e-01 0.000000e+00 0.0
1.625000e-01 0.000000e+00 0.0
1.750000e-01 0.000000e+00 0.0
1.875000e-01 0.000000e+00 0.0
2.000000e-01 0.000000e+00 0.0
2.125000e-01 0.000000e+00 0.0
2.250000e-01 0.000000e+00 0.0
2.375000e-01 0.000000e+00 0.0
2.500000e-01 0.000000e+00 0.0
2.625000e-01 0.000000e+00 0.0
2.750000e-01 0.000000e+00 0.0
2.875000e-01 0.000000e+00 0.0
3.000000e-01 0.000000e+00 0.0
3.125000e-01 0.000000e+00 0.0
3.250000e-01 0.000000e+00 0.0
3.375000e-01 0.000000e+00 0.0
3.500000e-01 0.000000e+00 0.0
3.625000e-01 0.000000e+00 0.0
3.750000e-01 0.000000e+00 0.0
3.875000e-01 0.000000e+00 0.0
4.000000e-01 0.000000e+00 0.0
4.125000e-01 0.000000e+00 0.0
4.250000e-01 0.000000e+00 0.0
4.375000e-01 0.000000e+00 0.0
4.500000e-01 0.000000e+00 0.0
4.625000e-01 0.000000e+00 0.0
4.750000e-01 0.000000e+00 0.0
4.875000e-01 0.000000e+00 0.0
5.000000e-01 0.000000e+00 0.0
5.125000e-01 0.000000e+00 0.0
5.250000e-01 0.000000e+00 0.0
5.375000e-01 0.000000e+00 0.0
5.500000e-01 0.000000e+00 0.0
5.625000e-01 0.000000e+00 0.0
5.750000e-01 0.000000e+00 0.0
5.875000e-01 0.000000e+00 0.0
6.000000e-01 0.000000e+00 0.0
6.125000e-01 0.000000e+00 0.0
6.250000e-01 0.000000e+00 0.0
6.375000e-01 0.000000e+00 0.0
6.500000e-01 0.000000e+00 0.0
6.625000e-01 0.000000e+00 0.0
6.750000e-01 0.000000e+00 0.0
6.875000e-01 0.000000e+00 0.0
7.000000e-01 0.000000e+00 0.0
7.125000e-01 0.000000e+00 0.0
7.250000e-01 0.000000e+00 0.0
7.375000e-01 0.000000e+00 0.0
7.500000e-01 0.000000e+00 0.0
7.625000e-01 0.000000e+00 0.0
7.750000e-01 0.000000e+00 0.0
7.875000e-01 0.000000e+00 0.0
8.000000e-01 0.000000e+00 0.0
8.125000e-01 0.000000e+00 0.0
8.250000e-01 0.000000e+00 0.0
8.375000e-01 0.000000e+00 0.0
8.500000e-01 0.000000e+00 0.0
8.625000e-01 0.000000e+00 0.0
8.750000e-01 0.000000e+00 0.0
8.875000e-01 0.000000e+00 0.0
9.000000e-01 0.000000e+00 0.0
9.125000e-01 0.000000e+00 0.0
9.250000e-01 0.000000e+00 0.0
9.375000e-01 0.000000e+00 0.0
9.500000e-01 0.000000e+00 0.0
9.625000e-01 0.000000e+00 0.0
9.750000e-01 0.000000e+00 0.0
9.875000e-01 0.000000e+00 0.0
1.000000e+00 0.000000e+00 0.0
0.000000e+00 1.250000e-02 0.0
1.250000e-02 1.250000e-02 0.0
2.500000e-02 1.250000e-02 0.0
3.750000e-02 1.250000e-02 0.0
5.000000e-02 1.250000e-02 0.0
6.250000e-02 1.250000e-02 0.0
7.500000e-02 1.250000e-02 0.0
8.750000e-02 1.250000e-02 0.0
1.000000e-01 1.250000e-02 0.0
1.125000e-01 1.250000e-02 0.0
1.250000e-01 1.250000e-02 0.0
1.375000e-01 1.250000e-02 0.0
1.500000e-01 1.250000e-02 0.0
1.625000e-01 1.250000e-02 0.0
1.750000e-01 1.250000e-02 0.0
1.875000e-01 1.250000e-02 0.0
2.000000e-01 1.250000e-02 0.0
2.125000e-01 1.250000e-02 0.0
2.250000e-01 1.250000e-02 0.0
2.375000e-01 1.250000e-02 0.0
2.500000e-01 1.250000e-02 0.0
2.625000e-01 1.250000e-02 0.0
2.750000e-01 1.250000e-02 0.0
2.875000e-01 1.250000e-02 0.0
3.000000e-01 1.250000e-02 0.0
3.125000e-01 1.250000e-02 0.0
3.250000e-01 1.250000e-02 0.0
3.375000e-01 1.250000e-02 0.0
3.500000e-01 1.250000e-02 0.0
3.625000e-01 1.250000e-02 0.0
3.750000e-01 1.250000e-02 0.0
3.875000e-01 1.250000e-02 0.0
4.000000e-01 1.250000e-02 0.0
4.125000e-01 1.250000e-02 0.0
4.250000e-01 1.250000e-02 0.0
4.375000e-01 1.250000e-02 0.0
4.500000e-01 1.250000e-02 0.0
4.625000e-01 1.250000e-02 0.0
4.750000e-01 1.250000e-02 0.0
4.875000e-01 1.250000e-02 0.0
5.000000e-01 1.250000e-02 0.0
5.125000e-01 1.250000e-02 0.0
5.250000e-01 1.250000e-02 0.0
5.375000e-01 1.250000e-02 0.0
5.500000e-01 1.250000e-02 0.0
5.625000e-01 1.250000e-02 0.0
5.750000e-01 1.250000e-02 0.0
5.875000e-01 1.250000e-02 0.0
6.000000e-01 1.250000e-02 0.0
6.125000e-01 1.250000e-02 0.0
6.250000e-01 1.250000e-02 0.0
6.375000e-01 1.250000e-02 0.0
6.500000e-01 1.250000e-02 0.0
6.625000e-01 1.250000e-02 0.0
6.750000e-01 1.250000e-02 0.0
6.875000e-01 1.250000e-02 0.0
7.000000e-01 1.250000e-02 0.0
7.125000e-01 1.250000e-02 0.0
7.250000e-01 1.250000e-02 0.0
7.375000e-01 1.250000e-02 0.0
7.500000e-01 1.250000e-02 0.0
7.625000e-01 1.250000e-02 0.0
7.750000e-01 1.250000e-02 0.0
7.875000e-01 1.250000e-02 0.0
8.000000e-01 1.250000e-02 0.0
8.125000e-01 1.250000e-02 0.0
8.250000e-01 1.250000e-02 0.0
8.375000e-01 1.250000e-02 0.0
8.500000e-01 1.250000e-02 0.0
8.625000e-01 1.250000e-02 0.0
8.750000e-01 1.250000e-02 0.0
8.875000e-01 1.250000e-02 0.0
9.000000e-01 1.250000e-02 0.0
9.125000e-01 1.250000e-02 0.0
9.250000e-01 1.250000e-02 0.0
9.375000e-01 1.250000e-02 0.0
9.500000e-01 1.250000e-02 0.0
9.625000e-01 1.250000e-02 0.0
9.750000e-01 1.250000e-02 0.0
9.875000e-01 1.250000e-02 0.0
1.000000e+00 1.250000e-02 0.0
0.000000e+00 2.500000e-02 0.0
1.250000e-02 2.500000e-02 0.0
2.500000e-02 2.500000e-02 0.0
3.750000e-02 2.500000e-02 0.0
5.000000e-02 2.500000e-02 0.0
6.250000e-02 2.500000e-02 0.0
7.500000e-02 2.500000e-02 0.0
8.750000e-02 2.500000e-02 0.0
1.000000e-01 2.500000e-02 0.0
1.125000e-01 2.500000e-02 0.0
1.250000e-01 2.500000e-02 0.0
1.375000e-01 2.500000e-02 0.0
1.500000e-01 2.500000e-02 0.0
1.625000e-01 2.500000e-02 0.0
1.750000e-01 2.500000e-02 0.0
1.875000e-01 2.500000e-02 0.0
2.000000e-01 2.500000e-02 0.0
2.125000e-01 2.500000e-02 0.0
2.250000e-01 2.500000e-02 0.0
2.375000e-01 2.500000e-02 0.0
2.500000e-01 2.500000e-02 0.0
2.625000e-01 2.500000e-02 0.0
2.750000e-01 2.500000e-02 0.0
2.875000e-01 2.500000e-02 0.0
3.000000e-01 2.500000e-02 0.0
3.125000e-01 2.500000e-02 0.0
3.250000e-01 2.500000e-02 0.0
3.375000e-01 2.500000e-02 0.0
3.500000e-01 2.500000e-02 0.0
3.625000e-01 2.500000e-02 0.0
3.750000e-01 2.500000e-02 0.0
3.875000e-01 2.500000e-02 0.0
4.000000e-01 2.500000e-02 0.0
4.125000e-01 2.500000e-02 0.0
4.250000e-01 2.500000e-02 0.0
4.375000e-01 2.500000e-02 0.0
4.500000e-01 2.500000e-02 0.0
4.625000e-01 2.500000e-02 0.0
4.750000e-01 2.500000e-02 0.0
4.875000e-01 2.500000e-02 0.0
5.000000e-01 2.500000e-02 0.0
5.125000e-01 2.500000e-02 0.0
5.250000e-01 2.500000e-02 0.0
5.375000e-01 2.500000e-02 0.0
5.500000e-01 2.500000e-02 0.0
5.625000e-01 2.500000e-02 0.0
5.750000e-01 2.500000e-02 0.0
5.875000e-01 2.500000e-02 0.0
6.000000e-01 2.500000e-02 0.0
6.125000e-01 2.500000e-02 0.0
6.250000e-01 2.500000e-02 0.0
6.375000e-01 2.500000e-02 0.0
6.500000e-01 2.500000e-02 0.0
6.625000e-01 2.500000e-02 0.0
6.750000e-01 2.500000e-02 0.0
6.875000e-01 2.500000e-02 0.0
7.000000e-01 2.500000e-02 0.0
7.125000e-01 2.500000e-02 0.0
7.250000e-01 2.500000e-02 0.0
7.375000e-01 2.500000e-02 0.0
7.500000e-01 2.500000e-02 0.0
7.625000e-01 2.500000e-02 0.0
7.750000e-01 2.500000e-02 0.0
7.875000e-01 2.500000e-02 0.0
8.000000e-01 2.500000e-02 0.0
8.125000e-01 2.500000e-02 0.0
8.250000e-01 2.500000e-02 0.0
8.375000e-01 2.500000e-02 0.0
8.500000e-01 2.500000e-02 0.0
8.625000e-01 2.500000e-02 0.0
8.750000e-01 2.500000e-02 0.0
8.875000e-01 2.500000e-02 0.0
9.000000e-01 2.500000e-02 0.0
9.125000e-01 2.500000e-02 0.0
9.250000e-01 2.500000e-02 0.0
9.375000e-01 2.500000e-02 0.0
9.500000e-01 2.500000e-02 0.0
9.625000e-01 2.500000e-02 0.0
9.750000e-01 2.500000e-02 0.0
9.875000e-01 2.500000e-02 0.0
1.000000e+00 2.500000e-02 0.0
0.000000e+00 3.750000e-02 0.0
1.250000e-02 3.750000e-02 0.0
2.500000e-02 3.750000e-02 0.0
3.750000e-02 3.750000e-02 0.0
5.000000e-02 3.750000e-02 0.0
6.250000e-02 3.750000e-02 0.0
7.500000e-02 3.750000e-02 0.0
8.750000e-02 3.750000e-02 0.0
1.000000e-01 3.750000e-02 0.0
1.125000e-01 3.750000e-02 0.0
1.250000e-01 3.750000e-02 0.0
1.375000e-01 3.750000e-02 0.0
1.500000e-01 3.750000e-02 0.0
1.625000e-01 3.750000e-02 0.0
1.750000e-01 3.750000e-02 0.0
1.875000e-01 3.750000e-02 0.0
2.000000e-01 3.750000e-02 0.0
2.125000e-01 3.750000e-02 0.0
2.250000e-01 3.750000e-02 0.0
2.375000e-01 3.750000e-02 0.0
2.500000e-01 3.750000e-02 0.0
2.625000e-01 3.750000e-02 0.0
2.750000e-01 3.750000e-02 0.0
2.875000e-01 3.750000e-02 0.0
3.000000e-01 3.750000e-02 0.0
3.125000e-01 3.750000e-02 0.0
3.250000e-01 3.750000e-02 0.0
3.375000e-01 3.750000e-02 0.0
3.500000e-01 3.750000e-02 0.0
3.625000e-01 3.750000e-02 0.0
3.750000e-01 3.750000e-02 0.0
3.875000e-01 3.750000e-02 0.0
4.000000e-01 3.750000e-02 0.0
4.125000e-01 3.750000e-02 0.0
4.250000e-01 3.750000e-02 0.0
4.375000e-01 3.750000e-02 0.0
4.500000e-01 3.750000e-02 0.0
4.625000e-01 3.750000e-02 0.0
4.750000e-01 3.750000e-02 0.0
4.875000e-01 3.750000e-02 0.0
5.000000e-01 3.750000e-02 0.0
5.125000e-01 3.750000e-02 0.0
5.250000e-01 3.750000e-02 0.0
5.375000e-01 3.750000e-02 0.0
5.500000e-01 3.750000e-02 0.0
5.625000e-01 3.750000e-02 0.0
5.750000e-01 3.750000e-02 0.0
5.875000e-01 3.750000e-02 0.0
6.000000e-01 3.750000e-02 0.0
6.125000e-01 3.750000e-02 0.0
6.250000e-01 3.750000e-02 0.0
6.375000e-01 3.750000e-02 0.0
6.500000e-01 3.750000e-02 0.0
6.625000e-01 3.750000e-02 0.0
6.750000e-01 3.750000e-02 0.0
6.875000e-01 3.750000e-02 0.0
7.000000e-01 3.750000e-02 0.0
7.125000e-01 3.750000e-02 0.0
7.250000e-01 3.750000e-02 0.0
7.375000e-01 3.750000e-02 0.0
7.500000e-01 3.750000e-02 0.0
7.625000e-01 3.750000e-02 0.0
7.750000e-01 3.750000e-02 0.0
7.875000e-01 3.750000e-02 0.0
8.000000e-01 3.750000e-02 0.0
8.125000e-01 3.750000e-02 0.0
8.250000e-01 3.750000e-02 0.0
8.375000e-01 3.750000e-02 0.0
8.500000e-01 3.750000e-02 0.0
8.625000e-01 3.750000e-02 0.0
8.750000e-01 3.750000e-02 0.0
8.875000e-01 3.750000e-02 0.0
9.000000e-01 3.750000e-02 0.0
9.125000e-01 3.750000e-02 0.0
9.250000e-01 3.750000e-02 0.0
9.375000e-01 3.750000e-02 0.0
9.500000e-01 3.750000e-02 0.0
9.625000e-01 3.750000e-02 0.0
9.750000e-01 3.750000e-02 0.0
9.875000e-01 3.750000e-02 0.0
1.000000e+00 3.750000e-02 0.0
0.000000e+00 5.000000e-02 0.0
1.250000e-02 5.000000e-02 0.0
2.500000e-02 5.000000e-02 0.0
3.750000e-02 5.000000e-02 0.0
5.000000e-02 5.000000e-02 0.0
[...]
CELL_DATA 6400
SCALARS Temperature double 1
LOOKUP_TABLE default
5.000000e-01
2.183455e-01
1.238364e-01
8.326149e-02
6.172975e-02
4.848067e-02
3.950628e-02
3.302796e-02
2.813820e-02
2.432363e-02
2.127105e-02
1.877812e-02
1.670822e-02
1.496567e-02
1.348151e-02
1.220473e-02
1.109683e-02
1.012818e-02
9.275623e-03
8.520795e-03
7.848960e-03
7.248148e-03
6.708543e-03
6.222023e-03
5.781806e-03
5.382190e-03
5.018350e-03
4.686170e-03
4.382125e-03
4.103176e-03
3.846692e-03
3.610382e-03
3.392245e-03
3.190523e-03
3.003671e-03
2.830320e-03
2.669257e-03
2.519403e-03
2.379795e-03
2.249570e-03
2.127956e-03
2.014256e-03
1.907844e-03
1.808152e-03
1.714668e-03
1.626927e-03
1.544504e-03
1.467017e-03
1.394112e-03
1.325470e-03
1.260798e-03
1.199828e-03
1.142313e-03
1.088029e-03
1.036769e-03
9.883442e-04
9.425806e-04
8.993193e-04
8.584149e-04
8.197347e-04
7.831581e-04
7.485760e-04
7.158903e-04
6.850136e-04
6.558696e-04
6.283923e-04
6.025271e-04
5.782306e-04
5.554716e-04
5.342316e-04
5.145064e-04
4.963072e-04
4.796629e-04
4.646217e-04
4.512544e-04
4.396579e-04
4.299587e-04
4.223185e-04
4.169398e-04
4.140733e-04
7.816545e-01
5.000000e-01
3.407302e-01
2.481432e-01
1.905863e-01
1.522818e-01
1.252782e-01
1.053497e-01
9.010466e-02
7.810624e-02
6.844493e-02
6.051900e-02
5.391525e-02
4.834089e-02
4.358287e-02
3.948252e-02
3.591936e-02
3.280027e-02
3.005218e-02
2.761697e-02
2.544785e-02
2.350676e-02
2.176240e-02
2.018884e-02
1.876438e-02
1.747078e-02
1.629255e-02
1.521649e-02
1.423128e-02
1.332714e-02
1.249560e-02
1.172930e-02
1.102178e-02
1.036737e-02
9.761098e-03
9.198538e-03
8.675775e-03
8.189323e-03
7.736069e-03
7.313227e-03
6.918297e-03
6.549028e-03
6.203392e-03
5.879553e-03
5.575852e-03
5.290782e-03
5.022972e-03
4.771176e-03
4.534256e-03
4.311173e-03
4.100978e-03
3.902800e-03
3.715845e-03
3.539381e-03
3.372739e-03
3.215305e-03
3.066516e-03
2.925855e-03
2.792853e-03
2.667077e-03
2.548136e-03
2.435677e-03
2.329381e-03
2.228964e-03
2.134179e-03
2.044813e-03
1.960687e-03
1.881661e-03
1.807633e-03
1.738546e-03
1.674383e-03
1.615184e-03
1.561041e-03
1.512113e-03
1.468629e-03
1.430905e-03
1.399352e-03
1.374498e-03
1.357000e-03
1.347675e-03
8.761636e-01
6.592698e-01
5.000000e-01
3.885423e-01
3.102041e-01
2.537994e-01
2.119784e-01
1.800779e-01
1.551220e-01
1.351690e-01
1.189174e-01
1.054695e-01
9.419024e-02
8.461913e-02
7.641509e-02
6.932060e-02
6.313785e-02
5.771257e-02
5.292280e-02
4.867089e-02
4.487782e-02
4.147897e-02
3.842103e-02
3.565965e-02
3.315763e-02
3.088358e-02
2.881081e-02
2.691653e-02
2.518111e-02
2.358762e-02
2.212136e-02
2.076950e-02
1.952081e-02
1.836541e-02
1.729461e-02
1.630067e-02
1.537677e-02
1.451678e-02
1.371528e-02
1.296736e-02
1.226864e-02
1.161518e-02
1.100342e-02
1.043012e-02
9.892371e-03
9.387523e-03
8.913165e-03
8.467100e-03
8.047327e-03
7.652014e-03
7.279489e-03
6.928219e-03
6.596799e-03
6.283942e-03
5.988466e-03
5.709288e-03
5.445413e-03
5.195931e-03
4.960010e-03
4.736888e-03
4.525875e-03
4.326345e-03
4.137736e-03
3.959547e-03
3.791340e-03
3.632739e-03
3.483429e-03
3.343163e-03
3.211763e-03
3.089124e-03
2.975224e-03
2.870130e-03
2.774009e-03
2.687142e-03
2.609939e-03
2.542961e-03
2.486939e-03
2.442809e-03
2.411741e-03
2.395184e-03
9.167385e-01
7.518568e-01
6.114577e-01
5.000000e-01
4.136936e-01
3.469719e-01
2.948981e-01
2.536805e-01
2.205541e-01
1.935332e-01
1.711887e-01
1.524814e-01
1.366457e-01
1.231085e-01
1.114349e-01
1.012899e-01
9.241186e-02
8.459419e-02
7.767157e-02
7.151044e-02
6.600185e-02
6.105608e-02
5.659870e-02
5.256742e-02
4.890979e-02
4.558135e-02
4.254420e-02
3.976579e-02
3.721811e-02
3.487687e-02
3.272093e-02
3.073182e-02
2.889336e-02
2.719126e-02
2.561291e-02
2.414715e-02
2.278401e-02
2.151465e-02
2.033111e-02
1.922628e-02
1.819377e-02
1.722782e-02
1.632320e-02
1.547523e-02
1.467961e-02
1.393248e-02
1.323029e-02
1.256983e-02
1.194816e-02
1.136259e-02
1.081066e-02
1.029013e-02
9.798921e-03
9.335144e-03
8.897062e-03
8.483078e-03
8.091728e-03
7.721672e-03
7.371682e-03
7.040637e-03
6.727520e-03
6.431407e-03
6.151469e-03
5.886970e-03
5.637264e-03
5.401794e-03
5.180099e-03
4.971816e-03
4.776682e-03
4.594546e-03
4.425377e-03
4.269278e-03
4.126498e-03
3.997459e-03
3.882771e-03
3.783267e-03
3.700039e-03
3.634476e-03
3.588319e-03
3.563719e-03
9.382703e-01
8.094137e-01
6.897959e-01
5.863064e-01
5.000000e-01
4.291496e-01
3.711852e-01
3.235984e-01
2.842570e-01
2.514532e-01
2.238537e-01
2.004274e-01
1.803764e-01
1.630805e-01
1.480543e-01
1.349143e-01
1.233549e-01
1.131306e-01
1.040422e-01
9.592654e-02
8.864943e-02
8.209923e-02
7.618255e-02
7.082079e-02
6.594733e-02
6.150538e-02
5.744630e-02
5.372819e-02
5.031478e-02
4.717456e-02
4.428001e-02
4.160703e-02
3.913440e-02
3.684341e-02
3.471747e-02
3.274185e-02
3.090343e-02
2.919048e-02
2.759250e-02
2.610004e-02
2.470461e-02
2.339855e-02
2.217492e-02
2.102746e-02
1.995044e-02
1.893870e-02
1.798751e-02
1.709257e-02
1.624994e-02
1.545601e-02
1.470750e-02
1.400138e-02
1.333489e-02
1.270546e-02
1.211078e-02
1.154870e-02
1.101724e-02
1.051460e-02
1.003913e-02
9.589321e-03
9.163800e-03
8.761325e-03
8.380780e-03
8.021171e-03
7.681627e-03
7.361402e-03
7.059875e-03
6.776557e-03
6.511098e-03
6.263298e-03
6.033119e-03
5.820706e-03
5.626405e-03
5.450789e-03
5.294696e-03
5.159264e-03
5.045979e-03
4.956735e-03
4.893905e-03
4.860419e-03
9.515193e-01
8.477182e-01
7.462006e-01
6.530281e-01
5.708504e-01
5.000000e-01
4.396003e-01
3.883094e-01
3.447241e-01
3.075624e-01
2.757248e-01
2.482975e-01
2.245337e-01
2.038264e-01
1.856828e-01
1.697025e-01
1.555583e-01
1.429818e-01
1.317516e-01
1.216837e-01
1.126246e-01
1.044455e-01
9.703735e-02
9.030774e-02
8.417772e-02
7.857957e-02
7.345491e-02
6.875323e-02
6.443056e-02
6.044857e-02
5.677363e-02
5.337618e-02
5.023015e-02
4.731243e-02
4.460252e-02
4.208216e-02
3.973504e-02
3.754654e-02
3.550357e-02
3.359432e-02
3.180815e-02
3.013545e-02
2.856752e-02
2.709646e-02
2.571509e-02
2.441688e-02
2.319585e-02
2.204658e-02
2.096409e-02
1.994381e-02
1.898158e-02
1.807355e-02
1.721622e-02
1.640635e-02
1.564096e-02
1.491734e-02
1.423298e-02
1.358558e-02
1.297303e-02
1.239341e-02
1.184499e-02
1.132616e-02
1.083551e-02
1.037177e-02
9.933837e-03
9.520755e-03
9.131735e-03
8.766156e-03
8.423578e-03
8.103750e-03
7.806633e-03
7.532420e-03
7.281565e-03
7.054816e-03
6.853261e-03
6.678372e-03
6.532077e-03
6.416824e-03
6.335680e-03
6.292432e-03
9.604937e-01
8.747218e-01
7.880216e-01
7.051019e-01
6.288148e-01
5.603997e-01
5.000000e-01
4.471386e-01
4.010549e-01
3.609083e-01
3.258869e-01
2.952563e-01
2.683763e-01
2.446992e-01
2.237621e-01
2.051758e-01
1.886132e-01
1.737996e-01
1.605039e-01
1.485307e-01
1.377145e-01
1.279145e-01
1.190106e-01
1.108995e-01
1.034926e-01
9.671288e-02
9.049387e-02
8.477748e-02
7.951294e-02
7.465573e-02
7.016664e-02
6.601105e-02
6.215829e-02
5.858111e-02
5.525524e-02
5.215899e-02
4.927296e-02
4.657970e-02
4.406354e-02
4.171034e-02
3.950731e-02
3.744289e-02
3.550658e-02
3.368885e-02
3.198101e-02
3.037514e-02
2.886403e-02
2.744105e-02
2.610017e-02
2.483582e-02
2.364293e-02
2.251681e-02
2.145318e-02
2.044808e-02
1.949789e-02
1.859927e-02
1.774914e-02
1.694471e-02
1.618337e-02
1.546278e-02
1.478080e-02
1.413548e-02
1.352507e-02
1.294801e-02
1.240296e-02
1.188875e-02
1.140440e-02
1.094916e-02
1.052249e-02
1.012410e-02
9.753957e-03
9.412303e-03
9.099718e-03
8.817144e-03
8.565943e-03
8.347963e-03
8.165610e-03
8.021944e-03
7.920792e-03
7.866880e-03
9.669720e-01
8.946503e-01
8.199221e-01
7.463195e-01
6.764016e-01
6.116906e-01
5.528614e-01
5.000000e-01
4.528357e-01
4.109121e-01
3.736998e-01
3.406632e-01
3.112967e-01
2.851417e-01
2.617912e-01
2.408898e-01
2.221290e-01
2.052431e-01
1.900028e-01
1.762108e-01
1.636972e-01
1.523153e-01
1.419380e-01
1.324552e-01
1.237711e-01
1.158022e-01
1.084753e-01
1.017263e-01
9.549884e-02
8.974298e-02
8.441467e-02
7.947479e-02
7.488853e-02
7.062483e-02
6.665593e-02
6.295694e-02
5.950550e-02
5.628148e-02
5.326673e-02
5.044483e-02
4.780090e-02
4.532145e-02
4.299422e-02
4.080805e-02
3.875275e-02
3.681901e-02
3.499834e-02
3.328295e-02
3.166569e-02
3.014001e-02
2.869989e-02
2.733980e-02
2.605463e-02
2.483971e-02
2.369072e-02
2.260370e-02
2.157499e-02
2.060124e-02
1.967939e-02
1.880661e-02
1.798035e-02
1.719829e-02
1.645836e-02
1.575869e-02
1.509767e-02
1.447391e-02
1.388626e-02
1.333382e-02
1.281596e-02
1.233235e-02
1.188294e-02
1.146808e-02
1.108846e-02
1.074525e-02
1.044012e-02
1.017531e-02
9.953775e-03
9.779228e-03
9.656328e-03
9.590824e-03
9.718618e-01
9.098953e-01
8.448780e-01
7.794459e-01
7.157430e-01
6.552759e-01
5.989451e-01
5.471643e-01
5.000000e-01
4.572954e-01
4.187659e-01
3.840651e-01
3.528285e-01
3.246990e-01
2.993415e-01
2.764497e-01
2.557479e-01
2.369910e-01
2.199624e-01
2.044714e-01
1.903504e-01
1.774526e-01
1.656489e-01
1.548259e-01
1.448839e-01
1.357352e-01
1.273021e-01
1.195161e-01
1.123162e-01
1.056486e-01
9.946509e-02
9.372275e-02
8.838321e-02
8.341207e-02
7.877846e-02
7.445459e-02
7.041539e-02
6.663824e-02
6.310265e-02
5.979006e-02
5.668360e-02
5.376793e-02
5.102908e-02
4.845428e-02
4.603190e-02
4.375127e-02
4.160260e-02
3.957695e-02
3.766609e-02
3.586244e-02
3.415906e-02
3.254953e-02
3.102796e-02
2.958891e-02
2.822737e-02
2.693873e-02
2.571875e-02
2.456351e-02
2.346945e-02
2.243328e-02
2.145203e-02
2.052299e-02
1.964373e-02
1.881208e-02
1.802617e-02
1.728437e-02
1.658535e-02
1.592808e-02
1.531182e-02
1.473620e-02
1.420121e-02
1.370725e-02
1.325520e-02
1.284645e-02
1.248301e-02
1.216757e-02
1.190365e-02
1.169570e-02
1.154927e-02
1.147123e-02
9.756764e-01
9.218938e-01
8.648310e-01
8.064668e-01
7.485468e-01
6.924376e-01
6.390917e-01
5.890879e-01
5.427046e-01
5.000000e-01
4.608839e-01
4.251739e-01
3.926372e-01
3.630194e-01
3.360629e-01
3.115189e-01
2.891535e-01
2.687514e-01
2.501163e-01
2.330713e-01
2.174575e-01
2.031331e-01
1.899714e-01
1.778594e-01
1.666968e-01
1.563938e-01
1.468706e-01
1.380559e-01
1.298860e-01
1.223038e-01
1.152583e-01
1.087035e-01
1.025981e-01
9.690509e-02
9.159078e-02
8.662493e-02
8.198007e-02
7.763135e-02
7.355618e-02
6.973399e-02
6.614608e-02
6.277538e-02
5.960629e-02
5.662455e-02
5.381708e-02
5.117192e-02
4.867806e-02
4.632539e-02
4.410461e-02
4.200717e-02
4.002518e-02
3.815136e-02
3.637900e-02
3.470193e-02
3.311444e-02
3.161125e-02
3.018753e-02
2.883882e-02
2.756101e-02
2.635037e-02
2.520348e-02
2.411724e-02
2.308886e-02
2.211588e-02
2.119613e-02
2.032777e-02
1.950927e-02
1.873946e-02
1.801753e-02
1.734307e-02
1.671608e-02
1.613708e-02
1.560712e-02
1.512785e-02
1.470166e-02
1.433172e-02
1.402217e-02
1.377824e-02
1.360648e-02
1.351493e-02
9.787290e-01
9.315551e-01
8.810826e-01
8.288113e-01
7.761463e-01
7.242752e-01
6.741131e-01
6.263002e-01
5.812341e-01
5.391161e-01
5.000000e-01
4.638357e-01
4.305047e-01
3.998473e-01
3.716825e-01
3.458212e-01
3.220761e-01
3.002666e-01
2.802228e-01
2.617869e-01
2.448136e-01
2.291704e-01
2.147369e-01
2.014041e-01
1.890737e-01
1.776567e-01
1.670729e-01
1.572503e-01
1.481237e-01
1.396343e-01
1.317290e-01
1.243599e-01
1.174835e-01
1.110606e-01
1.050555e-01
9.943585e-02
9.417215e-02
8.923762e-02
8.460782e-02
8.026046e-02
7.617515e-02
7.233323e-02
6.871762e-02
6.531265e-02
6.210393e-02
5.907823e-02
5.622339e-02
5.352818e-02
5.098229e-02
4.857619e-02
4.630107e-02
4.414883e-02
4.211196e-02
4.018352e-02
3.835713e-02
3.662687e-02
3.498729e-02
3.343339e-02
3.196054e-02
3.056452e-02
2.924149e-02
2.798795e-02
2.680076e-02
2.567714e-02
2.461465e-02
2.361121e-02
2.266513e-02
2.177508e-02
2.094018e-02
2.015998e-02
1.943456e-02
1.876452e-02
1.815112e-02
1.759631e-02
1.710287e-02
1.667451e-02
1.631605e-02
1.603356e-02
1.583463e-02
1.572859e-02
9.812219e-01
9.394810e-01
8.945305e-01
8.475186e-01
7.995726e-01
7.517025e-01
7.047437e-01
6.593369e-01
6.159349e-01
5.748261e-01
5.361643e-01
5.000000e-01
4.663081e-01
4.350114e-01
4.059989e-01
3.791396e-01
3.542933e-01
3.313168e-01
3.100695e-01
2.904163e-01
2.722292e-01
2.553887e-01
2.397838e-01
2.253123e-01
2.118804e-01
1.994023e-01
1.877997e-01
1.770011e-01
1.669414e-01
1.575616e-01
1.488075e-01
1.406302e-01
1.329849e-01
1.258308e-01
1.191307e-01
1.128507e-01
1.069598e-01
1.014296e-01
9.623405e-02
9.134944e-02
8.675390e-02
8.242741e-02
7.835153e-02
7.450932e-02
7.088519e-02
6.746474e-02
6.423472e-02
6.118289e-02
5.829794e-02
5.556941e-02
5.298766e-02
5.054373e-02
4.822935e-02
4.603688e-02
4.395923e-02
4.198987e-02
4.012275e-02
3.835231e-02
3.667343e-02
3.508141e-02
3.357196e-02
3.214121e-02
3.078567e-02
2.950222e-02
2.828818e-02
2.714123e-02
2.605949e-02
2.504153e-02
2.408638e-02
2.319358e-02
2.236327e-02
2.159619e-02
2.089381e-02
2.025841e-02
1.969321e-02
1.920249e-02
1.879180e-02
1.846812e-02
1.824018e-02
1.811867e-02
9.832918e-01
9.460848e-01
9.058098e-01
8.633543e-01
8.196236e-01
7.754663e-01
7.316237e-01
6.887033e-01
6.471715e-01
6.073628e-01
5.694953e-01
5.336919e-01
5.000000e-01
4.684105e-01
4.388736e-01
4.113115e-01
3.856287e-01
3.617195e-01
3.394740e-01
3.187815e-01
2.995336e-01
2.816262e-01
2.649604e-01
2.494429e-01
2.349869e-01
2.215115e-01
2.089420e-01
1.972092e-01
1.862497e-01
1.760049e-01
1.664213e-01
1.574494e-01
1.490441e-01
1.411638e-01
1.337705e-01
1.268291e-01
1.203074e-01
1.141760e-01
1.084076e-01
1.029773e-01
9.786206e-02
9.304059e-02
8.849337e-02
8.420232e-02
8.015077e-02
7.632331e-02
7.270569e-02
6.928470e-02
6.604814e-02
6.298470e-02
6.008389e-02
5.733600e-02
5.473203e-02
5.226362e-02
4.992305e-02
4.770317e-02
4.559735e-02
4.359950e-02
4.170400e-02
3.990569e-02
3.819986e-02
3.658224e-02
3.504901e-02
3.359675e-02
3.222249e-02
3.092371e-02
2.969836e-02
2.854488e-02
2.746226e-02
2.645003e-02
2.550841e-02
2.463830e-02
2.384141e-02
2.312038e-02
2.247890e-02
2.192188e-02
2.145565e-02
2.108817e-02
2.082935e-02
2.069138e-02
9.850343e-01
9.516591e-01
9.153809e-01
8.768915e-01
8.369195e-01
7.961736e-01
7.553008e-01
7.148583e-01
6.753010e-01
6.369806e-01
6.001527e-01
5.649886e-01
5.315895e-01
5.000000e-01
4.702213e-01
4.422222e-01
4.159481e-01
3.913288e-01
3.682844e-01
3.467293e-01
3.265760e-01
3.077371e-01
2.901272e-01
2.736642e-01
2.582696e-01
2.438693e-01
2.303934e-01
2.177768e-01
2.059587e-01
1.948826e-01
1.844960e-01
1.747503e-01
1.656005e-01
1.570052e-01
1.489259e-01
1.413271e-01
1.341761e-01
1.274424e-01
1.210981e-01
1.151174e-01
1.094762e-01
1.041524e-01
9.912556e-02
9.437660e-02
8.988795e-02
8.564329e-02
8.162749e-02
7.782651e-02
7.422733e-02
7.081784e-02
6.758681e-02
6.452380e-02
6.161911e-02
5.886376e-02
5.624939e-02
5.376827e-02
5.141322e-02
4.917764e-02
4.705542e-02
4.504097e-02
4.312915e-02
4.131535e-02
3.959538e-02
3.796553e-02
3.642261e-02
3.496386e-02
3.358709e-02
3.229063e-02
3.107342e-02
2.993502e-02
2.887574e-02
2.789665e-02
2.699976e-02
2.618809e-02
2.546585e-02
2.483860e-02
2.431352e-02
2.389962e-02
2.360809e-02
2.345268e-02
9.865185e-01
9.564171e-01
9.235849e-01
8.885651e-01
8.519457e-01
8.143172e-01
7.762379e-01
7.382088e-01
7.006585e-01
6.639371e-01
6.283175e-01
5.940011e-01
5.611264e-01
5.297787e-01
5.000000e-01
4.717982e-01
4.451548e-01
4.200319e-01
3.963777e-01
3.741314e-01
3.532261e-01
3.335920e-01
3.151584e-01
2.978549e-01
2.816130e-01
2.663664e-01
2.520517e-01
2.386087e-01
2.259804e-01
2.141132e-01
2.029568e-01
1.924644e-01
1.825918e-01
1.732984e-01
1.645458e-01
1.562987e-01
1.485242e-01
1.411915e-01
1.342723e-01
1.277400e-01
1.215701e-01
1.157398e-01
1.102279e-01
1.050145e-01
1.000815e-01
9.541157e-02
9.098902e-02
8.679902e-02
8.282783e-02
7.906264e-02
7.549155e-02
7.210345e-02
6.888804e-02
6.583572e-02
6.293755e-02
6.018526e-02
5.757117e-02
5.508817e-02
5.272970e-02
5.048975e-02
4.836281e-02
4.634387e-02
4.442846e-02
4.261259e-02
4.089281e-02
3.926619e-02
3.773039e-02
3.628365e-02
3.492487e-02
3.365369e-02
3.247050e-02
3.137660e-02
3.037429e-02
2.946703e-02
2.865957e-02
2.795822e-02
2.737101e-02
2.690810e-02
2.658202e-02
2.640818e-02
9.877953e-01
9.605175e-01
9.306794e-01
8.987101e-01
8.650857e-01
8.302975e-01
7.948242e-01
7.591102e-01
7.235503e-01
6.884811e-01
6.541788e-01
6.208604e-01
5.886885e-01
5.577778e-01
5.282018e-01
5.000000e-01
4.731845e-01
4.477457e-01
4.236578e-01
4.008828e-01
3.793740e-01
3.590790e-01
3.399420e-01
3.219053e-01
3.049108e-01
2.889012e-01
2.738202e-01
2.596135e-01
2.462290e-01
2.336168e-01
2.217298e-01
2.105233e-01
1.999550e-01
1.899854e-01
1.805773e-01
1.716957e-01
1.633081e-01
1.553839e-01
1.478944e-01
1.408132e-01
1.341152e-01
1.277773e-01
1.217777e-01
1.160961e-01
1.107137e-01
1.056128e-01
1.007770e-01
9.619081e-02
9.183993e-02
8.771096e-02
8.379139e-02
8.006957e-02
7.653459e-02
7.317633e-02
6.998535e-02
6.695284e-02
6.407067e-02
6.133127e-02
5.872767e-02
5.625344e-02
5.390272e-02
5.167019e-02
4.955105e-02
4.754106e-02
4.563656e-02
4.383445e-02
4.213225e-02
4.052814e-02
3.902104e-02
3.761061e-02
3.629741e-02
3.508297e-02
3.396994e-02
3.296222e-02
3.206518e-02
3.128588e-02
3.063333e-02
3.011885e-02
2.975642e-02
2.956319e-02
9.889032e-01
9.640806e-01
9.368622e-01
9.075881e-01
8.766451e-01
8.444417e-01
8.113868e-01
7.778710e-01
7.442521e-01
7.108465e-01
6.779239e-01
6.457067e-01
6.143713e-01
5.840519e-01
5.548452e-01
5.268155e-01
5.000000e-01
4.744133e-01
4.500525e-01
4.269002e-01
4.049289e-01
3.841028e-01
3.643807e-01
3.457178e-01
3.280669e-01
3.113798e-01
2.956084e-01
2.807049e-01
2.666226e-01
2.533163e-01
2.407425e-01
2.288594e-01
2.176272e-01
2.070083e-01
1.969668e-01
1.874689e-01
1.784827e-01
1.699783e-01
1.619272e-01
1.543030e-01
1.470808e-01
1.402372e-01
1.337502e-01
1.275992e-01
1.217651e-01
1.162297e-01
1.109761e-01
1.059885e-01
1.012520e-01
9.675283e-02
9.247788e-02
8.841503e-02
8.455290e-02
8.088090e-02
7.738910e-02
7.406829e-02
7.090986e-02
6.790587e-02
6.504895e-02
6.233231e-02
5.974976e-02
5.729567e-02
5.496497e-02
5.275321e-02
5.065649e-02
4.867160e-02
4.679594e-02
4.502766e-02
4.336567e-02
4.180975e-02
4.036062e-02
3.902008e-02
3.779114e-02
3.667822e-02
3.568733e-02
3.482635e-02
3.410529e-02
3.353673e-02
3.313617e-02
3.292261e-02
9.898718e-01
9.671997e-01
9.422874e-01
9.154058e-01
8.868694e-01
8.570182e-01
8.262004e-01
7.947569e-01
7.630090e-01
7.312486e-01
6.997334e-01
6.686832e-01
6.382805e-01
6.086712e-01
5.799681e-01
5.522543e-01
5.255867e-01
5.000000e-01
4.755108e-01
4.521204e-01
4.298182e-01
4.085843e-01
3.883914e-01
3.692071e-01
3.509953e-01
3.337173e-01
3.173332e-01
3.018022e-01
2.870838e-01
2.731378e-01
2.599247e-01
2.474066e-01
2.355466e-01
2.243092e-01
2.136606e-01
2.035684e-01
1.940021e-01
1.849324e-01
1.763317e-01
1.681740e-01
1.604346e-01
1.530901e-01
1.461188e-01
1.394999e-01
1.332140e-01
1.272429e-01
1.215692e-01
1.161769e-01
1.110508e-01
1.061765e-01
1.015408e-01
9.713110e-02
9.293556e-02
8.894320e-02
8.514371e-02
8.152750e-02
7.808558e-02
7.480965e-02
7.169199e-02
6.872551e-02
6.590371e-02
6.322068e-02
6.067113e-02
5.825039e-02
5.595440e-02
5.377982e-02
5.172398e-02
4.978502e-02
4.796188e-02
4.625446e-02
4.466370e-02
4.319168e-02
4.184183e-02
4.061911e-02
3.953022e-02
3.858390e-02
3.779127e-02
3.716619e-02
3.672578e-02
3.649095e-02
9.907244e-01
9.699478e-01
9.470772e-01
9.223284e-01
8.959578e-01
8.682484e-01
8.394961e-01
8.099972e-01
7.800376e-01
7.498837e-01
7.197772e-01
6.899305e-01
6.605260e-01
6.317156e-01
6.036223e-01
5.763422e-01
5.499475e-01
5.244892e-01
5.000000e-01
4.764973e-01
4.539856e-01
4.324592e-01
4.119041e-01
3.922997e-01
3.736206e-01
3.558375e-01
3.389188e-01
3.228312e-01
3.075402e-01
2.930113e-01
2.792098e-01
2.661014e-01
2.536528e-01
2.418312e-01
2.306053e-01
2.199445e-01
2.098198e-01
2.002033e-01
1.910683e-01
1.823895e-01
1.741428e-01
1.663053e-01
1.588554e-01
1.517726e-01
1.450373e-01
1.386314e-01
1.325374e-01
1.267392e-01
1.212211e-01
1.159688e-01
1.109685e-01
1.062075e-01
1.016736e-01
9.735557e-02
9.324268e-02
8.932504e-02
8.559337e-02
8.203905e-02
7.865408e-02
7.543107e-02
7.236328e-02
6.944457e-02
6.666945e-02
6.403305e-02
6.153121e-02
5.916047e-02
5.691812e-02
5.480231e-02
5.281207e-02
5.094744e-02
4.920959e-02
4.760093e-02
4.612536e-02
4.478841e-02
4.359752e-02
4.256236e-02
4.169517e-02
4.101121e-02
4.052927e-02
4.027228e-02
9.914792e-01
9.723830e-01
9.513291e-01
9.284896e-01
9.040735e-01
8.783163e-01
8.514693e-01
8.237892e-01
7.955286e-01
7.669287e-01
7.382131e-01
7.095837e-01
6.812185e-01