# vtk DataFile Version 3.0
QUICK_DC(JC)
ASCII
DATASET STRUCTURED_GRID
DIMENSIONS 41 41 1
POINTS 1681 double
0.000000e+00 0.000000e+00 0.0
2.500000e-02 0.000000e+00 0.0
5.000000e-02 0.000000e+00 0.0
7.500000e-02 0.000000e+00 0.0
1.000000e-01 0.000000e+00 0.0
1.250000e-01 0.000000e+00 0.0
1.500000e-01 0.000000e+00 0.0
1.750000e-01 0.000000e+00 0.0
2.000000e-01 0.000000e+00 0.0
2.250000e-01 0.000000e+00 0.0
2.500000e-01 0.000000e+00 0.0
2.750000e-01 0.000000e+00 0.0
3.000000e-01 0.000000e+00 0.0
3.250000e-01 0.000000e+00 0.0
3.500000e-01 0.000000e+00 0.0
3.750000e-01 0.000000e+00 0.0
4.000000e-01 0.000000e+00 0.0
4.250000e-01 0.000000e+00 0.0
4.500000e-01 0.000000e+00 0.0
4.750000e-01 0.000000e+00 0.0
5.000000e-01 0.000000e+00 0.0
5.250000e-01 0.000000e+00 0.0
5.500000e-01 0.000000e+00 0.0
5.750000e-01 0.000000e+00 0.0
6.000000e-01 0.000000e+00 0.0
6.250000e-01 0.000000e+00 0.0
6.500000e-01 0.000000e+00 0.0
6.750000e-01 0.000000e+00 0.0
7.000000e-01 0.000000e+00 0.0
7.250000e-01 0.000000e+00 0.0
7.500000e-01 0.000000e+00 0.0
7.750000e-01 0.000000e+00 0.0
8.000000e-01 0.000000e+00 0.0
8.250000e-01 0.000000e+00 0.0
8.500000e-01 0.000000e+00 0.0
8.750000e-01 0.000000e+00 0.0
9.000000e-01 0.000000e+00 0.0
9.250000e-01 0.000000e+00 0.0
9.500000e-01 0.000000e+00 0.0
9.750000e-01 0.000000e+00 0.0
1.000000e+00 0.000000e+00 0.0
0.000000e+00 2.500000e-02 0.0
2.500000e-02 2.500000e-02 0.0
5.000000e-02 2.500000e-02 0.0
7.500000e-02 2.500000e-02 0.0
1.000000e-01 2.500000e-02 0.0
1.250000e-01 2.500000e-02 0.0
1.500000e-01 2.500000e-02 0.0
1.750000e-01 2.500000e-02 0.0
2.000000e-01 2.500000e-02 0.0
2.250000e-01 2.500000e-02 0.0
2.500000e-01 2.500000e-02 0.0
2.750000e-01 2.500000e-02 0.0
3.000000e-01 2.500000e-02 0.0
3.250000e-01 2.500000e-02 0.0
3.500000e-01 2.500000e-02 0.0
3.750000e-01 2.500000e-02 0.0
4.000000e-01 2.500000e-02 0.0
4.250000e-01 2.500000e-02 0.0
4.500000e-01 2.500000e-02 0.0
4.750000e-01 2.500000e-02 0.0
5.000000e-01 2.500000e-02 0.0
5.250000e-01 2.500000e-02 0.0
5.500000e-01 2.500000e-02 0.0
5.750000e-01 2.500000e-02 0.0
6.000000e-01 2.500000e-02 0.0
6.250000e-01 2.500000e-02 0.0
6.500000e-01 2.500000e-02 0.0
6.750000e-01 2.500000e-02 0.0
7.000000e-01 2.500000e-02 0.0
7.250000e-01 2.500000e-02 0.0
7.500000e-01 2.500000e-02 0.0
7.750000e-01 2.500000e-02 0.0
8.000000e-01 2.500000e-02 0.0
8.250000e-01 2.500000e-02 0.0
8.500000e-01 2.500000e-02 0.0
8.750000e-01 2.500000e-02 0.0
9.000000e-01 2.500000e-02 0.0
9.250000e-01 2.500000e-02 0.0
9.500000e-01 2.500000e-02 0.0
9.750000e-01 2.500000e-02 0.0
1.000000e+00 2.500000e-02 0.0
0.000000e+00 5.000000e-02 0.0
2.500000e-02 5.000000e-02 0.0
5.000000e-02 5.000000e-02 0.0
7.500000e-02 5.000000e-02 0.0
1.000000e-01 5.000000e-02 0.0
1.250000e-01 5.000000e-02 0.0
1.500000e-01 5.000000e-02 0.0
1.750000e-01 5.000000e-02 0.0
2.000000e-01 5.000000e-02 0.0
2.250000e-01 5.000000e-02 0.0
2.500000e-01 5.000000e-02 0.0
2.750000e-01 5.000000e-02 0.0
3.000000e-01 5.000000e-02 0.0
3.250000e-01 5.000000e-02 0.0
3.500000e-01 5.000000e-02 0.0
3.750000e-01 5.000000e-02 0.0
4.000000e-01 5.000000e-02 0.0
4.250000e-01 5.000000e-02 0.0
4.500000e-01 5.000000e-02 0.0
4.750000e-01 5.000000e-02 0.0
5.000000e-01 5.000000e-02 0.0
5.250000e-01 5.000000e-02 0.0
5.500000e-01 5.000000e-02 0.0
5.750000e-01 5.000000e-02 0.0
6.000000e-01 5.000000e-02 0.0
6.250000e-01 5.000000e-02 0.0
6.500000e-01 5.000000e-02 0.0
6.750000e-01 5.000000e-02 0.0
7.000000e-01 5.000000e-02 0.0
7.250000e-01 5.000000e-02 0.0
7.500000e-01 5.000000e-02 0.0
7.750000e-01 5.000000e-02 0.0
8.000000e-01 5.000000e-02 0.0
8.250000e-01 5.000000e-02 0.0
8.500000e-01 5.000000e-02 0.0
8.750000e-01 5.000000e-02 0.0
9.000000e-01 5.000000e-02 0.0
9.250000e-01 5.000000e-02 0.0
9.500000e-01 5.000000e-02 0.0
9.750000e-01 5.000000e-02 0.0
1.000000e+00 5.000000e-02 0.0
0.000000e+00 7.500000e-02 0.0
2.500000e-02 7.500000e-02 0.0
5.000000e-02 7.500000e-02 0.0
7.500000e-02 7.500000e-02 0.0
1.000000e-01 7.500000e-02 0.0
1.250000e-01 7.500000e-02 0.0
1.500000e-01 7.500000e-02 0.0
1.750000e-01 7.500000e-02 0.0
2.000000e-01 7.500000e-02 0.0
2.250000e-01 7.500000e-02 0.0
2.500000e-01 7.500000e-02 0.0
2.750000e-01 7.500000e-02 0.0
3.000000e-01 7.500000e-02 0.0
3.250000e-01 7.500000e-02 0.0
3.500000e-01 7.500000e-02 0.0
3.750000e-01 7.500000e-02 0.0
4.000000e-01 7.500000e-02 0.0
4.250000e-01 7.500000e-02 0.0
4.500000e-01 7.500000e-02 0.0
4.750000e-01 7.500000e-02 0.0
5.000000e-01 7.500000e-02 0.0
5.250000e-01 7.500000e-02 0.0
5.500000e-01 7.500000e-02 0.0
5.750000e-01 7.500000e-02 0.0
6.000000e-01 7.500000e-02 0.0
6.250000e-01 7.500000e-02 0.0
6.500000e-01 7.500000e-02 0.0
6.750000e-01 7.500000e-02 0.0
7.000000e-01 7.500000e-02 0.0
7.250000e-01 7.500000e-02 0.0
7.500000e-01 7.500000e-02 0.0
7.750000e-01 7.500000e-02 0.0
8.000000e-01 7.500000e-02 0.0
8.250000e-01 7.500000e-02 0.0
8.500000e-01 7.500000e-02 0.0
8.750000e-01 7.500000e-02 0.0
9.000000e-01 7.500000e-02 0.0
9.250000e-01 7.500000e-02 0.0
9.500000e-01 7.500000e-02 0.0
9.750000e-01 7.500000e-02 0.0
1.000000e+00 7.500000e-02 0.0
0.000000e+00 1.000000e-01 0.0
2.500000e-02 1.000000e-01 0.0
5.000000e-02 1.000000e-01 0.0
7.500000e-02 1.000000e-01 0.0
1.000000e-01 1.000000e-01 0.0
1.250000e-01 1.000000e-01 0.0
1.500000e-01 1.000000e-01 0.0
1.750000e-01 1.000000e-01 0.0
2.000000e-01 1.000000e-01 0.0
2.250000e-01 1.000000e-01 0.0
2.500000e-01 1.000000e-01 0.0
2.750000e-01 1.000000e-01 0.0
3.000000e-01 1.000000e-01 0.0
3.250000e-01 1.000000e-01 0.0
3.500000e-01 1.000000e-01 0.0
3.750000e-01 1.000000e-01 0.0
4.000000e-01 1.000000e-01 0.0
4.250000e-01 1.000000e-01 0.0
4.500000e-01 1.000000e-01 0.0
4.750000e-01 1.000000e-01 0.0
5.000000e-01 1.000000e-01 0.0
5.250000e-01 1.000000e-01 0.0
5.500000e-01 1.000000e-01 0.0
5.750000e-01 1.000000e-01 0.0
6.000000e-01 1.000000e-01 0.0
6.250000e-01 1.000000e-01 0.0
6.500000e-01 1.000000e-01 0.0
6.750000e-01 1.000000e-01 0.0
7.000000e-01 1.000000e-01 0.0
7.250000e-01 1.000000e-01 0.0
7.500000e-01 1.000000e-01 0.0
7.750000e-01 1.000000e-01 0.0
8.000000e-01 1.000000e-01 0.0
8.250000e-01 1.000000e-01 0.0
8.500000e-01 1.000000e-01 0.0
8.750000e-01 1.000000e-01 0.0
9.000000e-01 1.000000e-01 0.0
9.250000e-01 1.000000e-01 0.0
9.500000e-01 1.000000e-01 0.0
9.750000e-01 1.000000e-01 0.0
1.000000e+00 1.000000e-01 0.0
0.000000e+00 1.250000e-01 0.0
2.500000e-02 1.250000e-01 0.0
5.000000e-02 1.250000e-01 0.0
7.500000e-02 1.250000e-01 0.0
1.000000e-01 1.250000e-01 0.0
1.250000e-01 1.250000e-01 0.0
1.500000e-01 1.250000e-01 0.0
1.750000e-01 1.250000e-01 0.0
2.000000e-01 1.250000e-01 0.0
2.250000e-01 1.250000e-01 0.0
2.500000e-01 1.250000e-01 0.0
2.750000e-01 1.250000e-01 0.0
3.000000e-01 1.250000e-01 0.0
3.250000e-01 1.250000e-01 0.0
3.500000e-01 1.250000e-01 0.0
3.750000e-01 1.250000e-01 0.0
4.000000e-01 1.250000e-01 0.0
4.250000e-01 1.250000e-01 0.0
4.500000e-01 1.250000e-01 0.0
4.750000e-01 1.250000e-01 0.0
5.000000e-01 1.250000e-01 0.0
5.250000e-01 1.250000e-01 0.0
5.500000e-01 1.250000e-01 0.0
5.750000e-01 1.250000e-01 0.0
6.000000e-01 1.250000e-01 0.0
6.250000e-01 1.250000e-01 0.0
6.500000e-01 1.250000e-01 0.0
6.750000e-01 1.250000e-01 0.0
7.000000e-01 1.250000e-01 0.0
7.250000e-01 1.250000e-01 0.0
7.500000e-01 1.250000e-01 0.0
7.750000e-01 1.250000e-01 0.0
8.000000e-01 1.250000e-01 0.0
8.250000e-01 1.250000e-01 0.0
8.500000e-01 1.250000e-01 0.0
8.750000e-01 1.250000e-01 0.0
9.000000e-01 1.250000e-01 0.0
9.250000e-01 1.250000e-01 0.0
9.500000e-01 1.250000e-01 0.0
9.750000e-01 1.250000e-01 0.0
1.000000e+00 1.250000e-01 0.0
0.000000e+00 1.500000e-01 0.0
2.500000e-02 1.500000e-01 0.0
5.000000e-02 1.500000e-01 0.0
7.500000e-02 1.500000e-01 0.0
1.000000e-01 1.500000e-01 0.0
1.250000e-01 1.500000e-01 0.0
1.500000e-01 1.500000e-01 0.0
1.750000e-01 1.500000e-01 0.0
2.000000e-01 1.500000e-01 0.0
2.250000e-01 1.500000e-01 0.0
2.500000e-01 1.500000e-01 0.0
2.750000e-01 1.500000e-01 0.0
3.000000e-01 1.500000e-01 0.0
3.250000e-01 1.500000e-01 0.0
3.500000e-01 1.500000e-01 0.0
3.750000e-01 1.500000e-01 0.0
4.000000e-01 1.500000e-01 0.0
4.250000e-01 1.500000e-01 0.0
4.500000e-01 1.500000e-01 0.0
4.750000e-01 1.500000e-01 0.0
5.000000e-01 1.500000e-01 0.0
5.250000e-01 1.500000e-01 0.0
5.500000e-01 1.500000e-01 0.0
5.750000e-01 1.500000e-01 0.0
6.000000e-01 1.500000e-01 0.0
6.250000e-01 1.500000e-01 0.0
6.500000e-01 1.500000e-01 0.0
6.750000e-01 1.500000e-01 0.0
7.000000e-01 1.500000e-01 0.0
7.250000e-01 1.500000e-01 0.0
7.500000e-01 1.500000e-01 0.0
7.750000e-01 1.500000e-01 0.0
8.000000e-01 1.500000e-01 0.0
8.250000e-01 1.500000e-01 0.0
8.500000e-01 1.500000e-01 0.0
8.750000e-01 1.500000e-01 0.0
9.000000e-01 1.500000e-01 0.0
9.250000e-01 1.500000e-01 0.0
9.500000e-01 1.500000e-01 0.0
9.750000e-01 1.500000e-01 0.0
1.000000e+00 1.500000e-01 0.0
0.000000e+00 1.750000e-01 0.0
2.500000e-02 1.750000e-01 0.0
5.000000e-02 1.750000e-01 0.0
7.500000e-02 1.750000e-01 0.0
1.000000e-01 1.750000e-01 0.0
1.250000e-01 1.750000e-01 0.0
1.500000e-01 1.750000e-01 0.0
1.750000e-01 1.750000e-01 0.0
2.000000e-01 1.750000e-01 0.0
2.250000e-01 1.750000e-01 0.0
2.500000e-01 1.750000e-01 0.0
2.750000e-01 1.750000e-01 0.0
3.000000e-01 1.750000e-01 0.0
3.250000e-01 1.750000e-01 0.0
3.500000e-01 1.750000e-01 0.0
3.750000e-01 1.750000e-01 0.0
4.000000e-01 1.750000e-01 0.0
4.250000e-01 1.750000e-01 0.0
4.500000e-01 1.750000e-01 0.0
4.750000e-01 1.750000e-01 0.0
5.000000e-01 1.750000e-01 0.0
5.250000e-01 1.750000e-01 0.0
5.500000e-01 1.750000e-01 0.0
5.750000e-01 1.750000e-01 0.0
6.000000e-01 1.750000e-01 0.0
6.250000e-01 1.750000e-01 0.0
6.500000e-01 1.750000e-01 0.0
6.750000e-01 1.750000e-01 0.0
7.000000e-01 1.750000e-01 0.0
7.250000e-01 1.750000e-01 0.0
7.500000e-01 1.750000e-01 0.0
7.750000e-01 1.750000e-01 0.0
8.000000e-01 1.750000e-01 0.0
8.250000e-01 1.750000e-01 0.0
8.500000e-01 1.750000e-01 0.0
8.750000e-01 1.750000e-01 0.0
9.000000e-01 1.750000e-01 0.0
9.250000e-01 1.750000e-01 0.0
9.500000e-01 1.750000e-01 0.0
9.750000e-01 1.750000e-01 0.0
1.000000e+00 1.750000e-01 0.0
0.000000e+00 2.000000e-01 0.0
[...]
CELL_DATA 1600
SCALARS Temperature double 1
LOOKUP_TABLE default
5.000000e-01
1.426059e-01
3.876127e-02
1.068548e-02
3.145217e-03
1.025882e-03
3.742848e-04
1.499800e-04
6.411915e-05
2.853379e-05
1.300878e-05
6.021836e-06
2.816860e-06
1.328119e-06
6.302534e-07
3.007500e-07
1.442219e-07
6.946668e-08
3.359416e-08
1.630570e-08
7.940890e-09
3.879124e-09
1.900320e-09
9.333688e-10
4.595453e-10
2.267647e-10
1.121310e-10
5.555425e-11
2.757363e-11
1.370897e-11
6.826588e-12
3.404463e-12
1.700204e-12
8.502091e-13
4.256873e-13
2.133862e-13
1.070842e-13
5.379492e-14
2.704187e-14
1.281691e-14
8.573941e-01
5.000000e-01
2.553812e-01
1.221711e-01
5.669948e-02
2.601161e-02
1.191317e-02
5.474158e-03
2.529402e-03
1.176206e-03
5.504919e-04
2.592431e-04
1.227939e-04
5.847453e-05
2.798243e-05
1.345095e-05
6.492392e-06
3.145509e-06
1.529243e-06
7.458316e-07
3.648166e-07
1.789289e-07
8.797732e-08
4.335771e-08
2.141391e-08
1.059731e-08
5.254206e-09
2.609621e-09
1.298251e-09
6.468556e-10
3.227627e-10
1.612688e-10
8.068162e-11
4.041342e-11
2.026632e-11
1.017411e-11
5.112886e-12
2.571937e-12
1.294505e-12
6.143451e-13
9.612387e-01
7.446188e-01
5.000000e-01
3.045531e-01
1.737890e-01
9.491036e-02
5.030968e-02
2.612875e-02
1.338073e-02
6.786293e-03
3.418995e-03
1.714775e-03
8.574749e-04
4.279731e-04
2.133716e-04
1.063241e-04
5.297648e-05
2.640119e-05
1.316279e-05
6.566364e-06
3.277951e-06
1.637620e-06
8.188013e-07
4.097431e-07
2.052196e-07
1.028732e-07
5.161306e-08
2.591713e-08
1.302500e-08
6.551255e-09
3.297758e-09
1.661313e-09
8.375539e-10
4.225648e-10
2.133454e-10
1.077886e-10
5.449452e-11
2.756847e-11
1.395045e-11
6.657059e-12
9.893145e-01
8.778289e-01
6.954469e-01
5.000000e-01
3.331046e-01
2.093261e-01
1.257971e-01
7.304831e-02
4.130489e-02
2.287551e-02
1.246334e-02
6.702875e-03
3.567682e-03
1.883201e-03
9.873969e-04
5.149043e-04
2.673285e-04
1.382949e-04
7.133443e-05
3.670800e-05
1.885317e-05
9.667830e-06
4.951377e-06
2.533285e-06
1.295070e-06
6.616506e-07
3.378727e-07
1.724720e-07
8.801752e-08
4.490982e-08
2.291215e-08
1.168876e-08
5.963085e-09
3.042225e-09
1.552189e-09
7.920331e-10
4.042018e-10
2.063085e-10
1.052813e-10
5.067531e-11
9.968548e-01
9.433005e-01
8.262110e-01
6.668954e-01
5.000000e-01
3.521505e-01
2.355400e-01
1.510211e-01
9.353518e-02
5.630656e-02
3.310875e-02
1.909225e-02
1.083177e-02
6.061844e-03
3.353515e-03
1.837167e-03
9.981147e-04
5.384196e-04
2.886748e-04
1.539622e-04
8.174258e-05
4.322914e-05
2.278371e-05
1.197251e-05
6.275152e-06
3.281593e-06
1.712733e-06
8.923724e-07
4.642447e-07
2.411976e-07
1.251684e-07
6.488946e-08
3.360976e-08
1.739467e-08
8.996391e-09
4.650063e-09
2.402262e-09
1.240455e-09
6.400441e-10
3.115909e-10
9.989741e-01
9.739884e-01
9.050896e-01
7.906739e-01
6.478495e-01
5.000000e-01
3.659590e-01
2.558432e-01
1.719779e-01
1.118004e-01
7.063606e-02
4.355352e-02
2.629923e-02
1.559734e-02
9.107690e-03
5.247003e-03
2.987563e-03
1.683716e-03
9.404063e-04
5.211078e-04
2.867540e-04
1.568233e-04
8.529702e-05
4.616815e-05
2.488092e-05
1.335694e-05
7.145628e-06
3.810856e-06
2.026705e-06
1.075142e-06
5.690577e-07
3.005783e-07
1.584729e-07
8.341131e-08
4.383645e-08
2.300633e-08
1.205913e-08
6.313774e-09
3.301066e-09
1.629090e-09
9.996257e-01
9.880868e-01
9.496903e-01
8.742029e-01
7.644600e-01
6.340410e-01
5.000000e-01
3.765408e-01
2.721430e-01
1.896866e-01
1.280764e-01
8.410381e-02
5.389885e-02
3.381129e-02
2.081540e-02
1.260423e-02
7.521262e-03
4.430269e-03
2.579646e-03
1.486704e-03
8.489805e-04
4.808331e-04
2.703201e-04
1.509628e-04
8.380152e-05
4.626729e-05
2.541899e-05
1.390279e-05
7.573225e-06
4.110101e-06
2.223094e-06
1.198734e-06
6.445576e-07
3.456819e-07
1.849526e-07
9.874073e-08
5.260905e-08
2.797824e-08
1.484844e-08
7.442019e-09
9.998500e-01
9.945258e-01
9.738712e-01
9.269517e-01
8.489789e-01
7.441568e-01
6.234592e-01
5.000000e-01
3.849755e-01
2.855909e-01
2.048780e-01
1.426287e-01
9.666691e-02
6.396858e-02
4.143739e-02
2.633560e-02
1.645468e-02
1.012505e-02
6.145251e-03
3.683925e-03
2.183908e-03
1.281663e-03
7.453154e-04
4.298309e-04
2.460206e-04
1.398464e-04
7.899453e-05
4.436503e-05
2.478515e-05
1.377963e-05
7.626909e-06
4.204146e-06
2.308683e-06
1.263381e-06
6.891313e-07
3.747760e-07
2.032539e-07
1.099484e-07
5.931195e-08
3.023505e-08
9.999359e-01
9.974706e-01
9.866193e-01
9.586951e-01
9.064648e-01
8.280221e-01
7.278570e-01
6.150245e-01
5.000000e-01
3.918990e-01
2.969259e-01
2.180811e-01
1.557028e-01
1.083506e-01
7.366865e-02
4.904720e-02
3.204015e-02
2.057322e-02
1.300570e-02
8.106086e-03
4.987585e-03
3.032967e-03
1.824686e-03
1.087050e-03
6.418154e-04
3.758298e-04
2.184151e-04
1.260509e-04
7.227991e-05
4.120140e-05
2.335734e-05
1.317434e-05
7.395862e-06
4.133810e-06
2.301166e-06
1.276157e-06
7.052301e-07
3.884460e-07
2.132251e-07
1.106789e-07
9.999715e-01
9.988238e-01
9.932137e-01
9.771245e-01
9.436934e-01
8.881996e-01
8.103134e-01
7.144091e-01
6.081010e-01
5.000000e-01
3.977125e-01
3.066457e-01
2.296860e-01
1.675105e-01
1.192096e-01
8.295459e-02
5.655384e-02
3.783903e-02
2.488685e-02
1.611323e-02
1.028369e-02
6.477176e-03
4.030498e-03
2.480219e-03
1.510641e-03
9.114193e-04
5.450979e-04
3.233812e-04
1.904137e-04
1.113424e-04
6.468707e-05
3.735642e-05
2.145279e-05
1.225570e-05
6.967540e-06
3.943182e-06
2.222123e-06
1.247269e-06
6.972211e-07
3.688396e-07
9.999870e-01
9.994495e-01
9.965810e-01
9.875367e-01
9.668912e-01
9.293639e-01
8.719236e-01
7.951220e-01
7.030741e-01
6.022875e-01
5.000000e-01
4.026828e-01
3.150987e-01
2.399859e-01
1.782303e-01
1.293094e-01
9.181162e-02
6.390082e-02
4.366460e-02
2.933515e-02
1.940232e-02
1.264876e-02
8.136705e-03
5.170008e-03
3.247682e-03
2.018636e-03
1.242441e-03
7.577570e-04
4.582442e-04
2.749352e-04
1.637429e-04
9.685159e-05
5.691923e-05
3.325060e-05
1.931499e-05
1.116085e-05
6.417252e-06
3.672652e-06
2.091939e-06
1.128607e-06
9.999940e-01
9.997408e-01
9.982852e-01
9.932971e-01
9.809077e-01
9.564465e-01
9.158962e-01
8.573713e-01
7.819189e-01
6.933543e-01
5.973172e-01
5.000000e-01
4.069953e-01
3.225369e-01
2.492049e-01
1.880107e-01
1.387166e-01
1.002424e-01
7.105285e-02
4.946668e-02
3.386891e-02
2.283302e-02
1.517318e-02
9.949043e-03
6.442927e-03
4.124347e-03
2.611802e-03
1.637396e-03
1.016917e-03
6.260417e-04
3.822544e-04
2.316115e-04
1.393270e-04
8.324753e-05
4.942506e-05
2.916945e-05
1.711858e-05
9.993245e-06
5.802497e-06
3.194056e-06
9.999972e-01
9.998772e-01
9.991425e-01
9.964323e-01
9.891682e-01
9.737008e-01
9.461011e-01
9.033331e-01
8.442972e-01
7.703140e-01
6.849013e-01
5.930047e-01
5.000000e-01
4.107828e-01
3.291477e-01
2.575177e-01
1.969757e-01
1.474949e-01
1.082598e-01
7.798929e-02
5.520857e-02
3.844857e-02
2.637081e-02
1.783088e-02
1.189691e-02
7.839423e-03
5.105896e-03
3.289431e-03
2.097634e-03
1.324877e-03
8.293054e-04
5.147354e-04
3.169597e-04
1.937217e-04
1.175700e-04
7.088166e-05
4.246726e-05
2.529346e-05
1.497528e-05
8.413545e-06
9.999987e-01
9.999415e-01
9.995720e-01
9.981168e-01
9.939382e-01
9.844027e-01
9.661887e-01
9.360314e-01
8.916494e-01
8.324895e-01
7.600141e-01
6.774631e-01
5.892172e-01
5.000000e-01
4.141435e-01
3.350733e-01
2.650622e-01
2.052286e-01
1.557029e-01
1.158821e-01
8.469957e-02
6.086385e-02
4.304260e-02
2.998625e-02
2.059820e-02
1.396350e-02
9.349032e-03
6.186892e-03
4.049635e-03
2.623492e-03
1.683167e-03
1.070049e-03
6.744294e-04
4.216369e-04
2.615818e-04
1.611119e-04
9.855318e-05
5.989572e-05
3.616513e-05
2.074244e-05
9.999994e-01
9.999720e-01
9.997866e-01
9.990126e-01
9.966465e-01
9.908923e-01
9.791846e-01
9.585626e-01
9.263314e-01
8.807904e-01
8.217697e-01
7.507951e-01
6.708523e-01
5.858565e-01
5.000000e-01
4.171520e-01
3.404241e-01
2.719489e-01
2.128562e-01
1.633939e-01
1.231302e-01
9.118004e-02
6.641391e-02
4.762610e-02
3.365446e-02
2.345400e-02
1.613291e-02
1.096111e-02
7.361170e-03
4.889622e-03
3.214451e-03
2.092625e-03
1.349779e-03
8.630567e-04
5.472998e-04
3.443592e-04
2.150688e-04
1.333792e-04
8.213681e-05
4.809717e-05
9.999997e-01
9.999865e-01
9.998937e-01
9.994851e-01
9.981628e-01
9.947530e-01
9.873958e-01
9.736644e-01
9.509528e-01
9.170454e-01
8.706906e-01
8.119893e-01
7.424823e-01
6.649267e-01
5.828480e-01
5.000000e-01
4.198656e-01
3.452871e-01
2.782673e-01
2.199317e-01
1.706156e-01
1.300260e-01
9.743171e-02
7.184602e-02
5.217959e-02
3.735460e-02
2.637957e-02
1.839033e-02
1.266516e-02
8.622144e-03
5.805927e-03
3.869290e-03
2.553474e-03
1.669530e-03
1.082004e-03
6.953937e-04
4.433886e-04
2.805830e-04
1.762223e-04
1.053572e-04
9.999999e-01
9.999935e-01
9.999470e-01
9.997327e-01
9.990019e-01
9.970124e-01
9.924787e-01
9.835453e-01
9.679599e-01
9.434462e-01
9.081884e-01
8.612834e-01
8.030243e-01
7.349378e-01
6.595759e-01
5.801344e-01
5.000000e-01
4.223293e-01
3.497321e-01
2.840912e-01
2.265173e-01
1.774107e-01
1.365913e-01
1.034587e-01
7.715191e-02
5.668792e-02
4.106932e-02
2.935855e-02
2.072217e-02
1.445105e-02
9.963046e-03
6.794618e-03
4.586228e-03
3.065407e-03
2.029897e-03
1.332332e-03
8.671446e-04
5.598691e-04
3.585929e-04
2.188803e-04
9.999999e-01
9.999969e-01
9.999736e-01
9.998617e-01
9.994616e-01
9.983163e-01
9.955697e-01
9.898750e-01
9.794268e-01
9.621610e-01
9.360992e-01
8.997576e-01
8.525051e-01
7.947714e-01
7.280511e-01
6.547129e-01
5.776707e-01
5.000000e-01
4.245794e-01
3.538156e-01
2.894814e-01
2.326659e-01
1.838173e-01
1.428474e-01
1.092672e-01
8.232668e-02
6.113951e-02
4.478424e-02
3.237667e-02
2.311609e-02
1.630916e-02
1.137710e-02
7.851462e-03
5.363052e-03
3.627674e-03
2.431086e-03
1.614797e-03
1.063554e-03
6.945973e-04
4.328071e-04
1.000000e+00
9.999985e-01
9.999868e-01
9.999287e-01
9.997113e-01
9.990596e-01
9.974204e-01
9.938547e-01
9.869943e-01
9.751132e-01
9.563354e-01
9.289471e-01
8.917402e-01
8.442971e-01
7.871438e-01
7.217327e-01
6.502679e-01
5.754206e-01
5.000000e-01
4.266449e-01
3.575840e-01
2.944890e-01
2.384231e-01
1.898691e-01
1.488143e-01
1.148647e-01
8.736789e-02
6.552558e-02
4.848751e-02
3.542160e-02
2.556095e-02
1.823047e-02
1.285767e-02
8.972055e-03
6.197228e-03
4.239159e-03
2.872960e-03
1.929863e-03
1.284934e-03
8.172063e-04
1.000000e+00
9.999993e-01
9.999934e-01
9.999633e-01
9.998460e-01
9.994789e-01
9.985133e-01
9.963161e-01
9.918939e-01
9.838868e-01
9.706649e-01
9.505333e-01
9.220107e-01
8.841179e-01
8.366061e-01
7.800683e-01
7.159088e-01
6.461844e-01
5.733551e-01
5.000000e-01
4.285498e-01
3.610757e-01
2.991570e-01
2.438280e-01
1.955964e-01
1.545109e-01
1.202593e-01
9.227500e-02
6.983964e-02
5.216945e-02
3.848271e-02
2.804678e-02
2.020659e-02
1.439833e-02
1.015193e-02
7.085994e-03
4.898453e-03
3.355076e-03
2.276897e-03
1.477744e-03
1.000000e+00
9.999996e-01
9.999967e-01
9.999811e-01
9.999183e-01
9.997132e-01
9.991510e-01
9.978161e-01
9.950124e-01
9.897163e-01
9.805977e-01
9.661311e-01
9.447914e-01
9.153004e-01
8.768698e-01
8.293844e-01
7.734827e-01
7.105186e-01
6.424160e-01
5.714502e-01
5.000000e-01
4.303137e-01
3.643230e-01
3.035219e-01
2.489148e-01
2.010260e-01
1.599551e-01
1.254594e-01
9.704885e-02
7.407703e-02
5.582217e-02
4.155088e-02
3.056468e-02
2.222977e-02
1.599294e-02
1.138663e-02
8.026440e-03
5.603891e-03
3.875327e-03
2.566069e-03
1.000000e+00
9.999998e-01
9.999984e-01
9.999903e-01
9.999568e-01
9.998432e-01
9.995192e-01
9.987183e-01
9.969670e-01
9.935228e-01
9.873512e-01
9.771670e-01
9.615514e-01
9.391361e-01
9.088200e-01
8.699740e-01
8.225893e-01
7.673341e-01
7.055110e-01
6.389243e-01
5.696863e-01
5.000000e-01
4.319533e-01
3.673531e-01
3.076151e-01
2.537130e-01
2.061820e-01
1.651631e-01
1.304739e-01
1.016913e-01
7.823453e-02
5.943930e-02
4.461829e-02
3.310675e-02
2.429292e-02
1.763569e-02
1.267179e-02
9.015537e-03
6.351349e-03
4.289591e-03
1.000000e+00
9.999999e-01
9.999992e-01
9.999950e-01
9.999772e-01
9.999147e-01
9.997297e-01
9.992547e-01
9.981753e-01
9.959695e-01
9.918633e-01
9.848268e-01
9.736292e-01
9.569574e-01
9.335861e-01
9.025683e-01
8.634087e-01
8.161827e-01
7.615769e-01
7.008430e-01
6.356770e-01
5.680467e-01
5.000000e-01
4.334825e-01
3.701891e-01
3.114634e-01
2.582487e-01
2.110860e-01
1.701504e-01
1.353111e-01
1.062048e-01
8.231010e-02
6.301576e-02
4.767832e-02
3.566601e-02
2.638957e-02
1.932111e-02
1.400311e-02
1.004665e-02
6.918860e-03
1.000000e+00
1.000000e+00
9.999996e-01
9.999975e-01
9.999880e-01
9.999538e-01
9.998490e-01
9.995702e-01
9.989129e-01
9.975198e-01
9.948300e-01
9.900510e-01
9.821691e-01
9.700138e-01
9.523739e-01
9.281540e-01
8.965413e-01
8.571526e-01
8.101309e-01
7.561720e-01
6.964781e-01
6.326469e-01
5.665175e-01
5.000000e-01
4.349131e-01
3.728509e-01
3.150905e-01
2.625447e-01
2.157572e-01
1.749308e-01
1.399795e-01
1.105926e-01
8.630260e-02
6.654752e-02
5.072532e-02
3.823629e-02
2.851381e-02
2.104399e-02
1.537105e-02
1.079053e-02
1.000000e+00
1.000000e+00
9.999998e-01
9.999987e-01
9.999937e-01
9.999751e-01
9.999162e-01
9.997540e-01
9.993582e-01
9.984894e-01
9.967523e-01
9.935571e-01
9.881031e-01
9.794018e-01
9.663455e-01
9.478204e-01
9.228481e-01
8.907328e-01
8.511857e-01
8.044036e-01
7.510852e-01
6.923849e-01
6.298109e-01
5.650869e-01
5.000000e-01
4.362553e-01
3.753556e-01
3.185165e-01
2.666213e-01
2.202131e-01
1.795175e-01
1.444870e-01
1.148581e-01
9.021165e-02
7.003146e-02
5.375454e-02
4.081218e-02
3.066018e-02
2.279165e-02
1.630395e-02
1.000000e+00
1.000000e+00
9.999999e-01
9.999993e-01
9.999967e-01
9.999866e-01
9.999537e-01
9.998602e-01
9.996242e-01
9.990886e-01
9.979814e-01
9.958757e-01
9.921606e-01
9.860365e-01
9.765460e-01
9.626454e-01
9.433121e-01
9.176733e-01
8.851353e-01
8.454891e-01
7.989740e-01
7.462870e-01
6.885366e-01
6.271491e-01
5.637447e-01
5.000000e-01
4.375178e-01
3.777180e-01
3.217593e-01
2.704963e-01
2.244694e-01
1.839225e-01
1.488416e-01
1.190048e-01
9.403742e-02
7.346518e-02
5.676197e-02
4.338873e-02
3.281267e-02
2.390999e-02
1.000000e+00
1.000000e+00
9.999999e-01
9.999997e-01
9.999983e-01
9.999929e-01
9.999746e-01
9.999210e-01
9.997816e-01
9.994549e-01
9.987576e-01
9.973882e-01
9.948941e-01
9.906510e-01
9.838671e-01
9.736204e-01
9.589307e-01
9.388605e-01
9.126321e-01
8.797407e-01
8.400449e-01
7.938180e-01
7.417513e-01
6.849095e-01
6.246444e-01
5.624822e-01
5.000000e-01
4.387083e-01
3.799512e-01
3.248348e-01
2.741858e-01
2.285401e-01
1.881568e-01
1.530505e-01
1.230367e-01
9.778056e-02
7.684692e-02
5.974400e-02
4.594645e-02
3.409138e-02
1.000000e+00
1.000000e+00
1.000000e+00
9.999998e-01
9.999991e-01
9.999962e-01
9.999861e-01
9.999556e-01
9.998739e-01
9.996766e-01
9.992422e-01
9.983626e-01
9.967106e-01
9.938131e-01
9.890389e-01
9.816097e-01
9.706415e-01
9.552158e-01
9.344744e-01
9.077250e-01
8.745406e-01
8.348369e-01
7.889140e-01
7.374553e-01
6.814835e-01
6.222820e-01
5.612917e-01
5.000000e-01
4.398332e-01
3.820664e-01
3.277566e-01
2.777039e-01
2.324383e-01
1.922307e-01
1.571209e-01
1.269574e-01
1.014421e-01
8.017509e-02
6.267747e-02
4.733520e-02
1.000000e+00
1.000000e+00
1.000000e+00
9.999999e-01
9.999995e-01
9.999980e-01
9.999924e-01
9.999752e-01
9.999277e-01
9.998096e-01
9.995418e-01
9.989831e-01
9.979024e-01
9.959504e-01
9.926388e-01
9.873348e-01
9.792778e-01
9.676233e-01
9.515125e-01
9.301604e-01
9.029512e-01
8.695261e-01
8.298496e-01
7.842428e-01
7.333787e-01
6.782407e-01
6.200488e-01
5.601668e-01
5.000000e-01
4.408984e-01
3.840737e-01
3.305373e-01
2.810635e-01
2.361755e-01
1.961536e-01
1.610594e-01
1.307709e-01
1.050227e-01
8.342246e-02
6.409924e-02
1.000000e+00
1.000000e+00
1.000000e+00
1.000000e+00
9.999998e-01
9.999989e-01
9.999959e-01
9.999862e-01
9.999588e-01
9.998887e-01
9.997251e-01
9.993740e-01
9.986751e-01
9.973765e-01
9.951104e-01
9.913779e-01
9.855490e-01
9.768839e-01
9.645784e-01
9.478306e-01
9.259230e-01
8.983087e-01
8.646889e-01
8.250692e-01
7.797869e-01
7.295037e-01
6.751652e-01
6.179336e-01
5.591016e-01
5.000000e-01
4.419090e-01
3.859819e-01
3.331878e-01
2.842760e-01
2.397622e-01
1.999342e-01
1.648724e-01
1.344804e-01
1.084906e-01
8.477505e-02
1.000000e+00
1.000000e+00
1.000000e+00
1.000000e+00
9.999999e-01
9.999994e-01
9.999978e-01
9.999924e-01
9.999766e-01
9.999353e-01
9.998363e-01
9.996177e-01
9.991707e-01
9.983168e-01
9.967855e-01
9.941941e-01
9.900370e-01
9.836908e-01
9.744390e-01
9.615173e-01
9.441778e-01
9.217655e-01
8.937952e-01
8.600205e-01
8.204825e-01
7.755306e-01
7.258142e-01
6.722434e-01
6.159263e-01
5.580910e-01
5.000000e-01
4.428695e-01
3.877990e-01
3.357179e-01
2.873518e-01
2.432083e-01
2.035807e-01
1.685650e-01
1.380486e-01
1.096514e-01
1.000000e+00
1.000000e+00
1.000000e+00
1.000000e+00
9.999999e-01
9.999997e-01
9.999988e-01
9.999958e-01
9.999868e-01
9.999626e-01
9.999031e-01
9.997684e-01
9.994853e-01
9.989300e-01
9.979074e-01
9.961307e-01
9.932054e-01
9.886229e-01
9.817695e-01
9.719532e-01
9.584491e-01
9.405607e-01
9.176899e-01
8.894074e-01
8.555130e-01
8.160775e-01
7.714599e-01
7.222961e-01
6.694627e-01
6.140181e-01
5.571305e-01
5.000000e-01
4.437840e-01
3.895320e-01
3.381365e-01
2.903003e-01
2.465225e-01
2.070997e-01
1.720938e-01
1.388821e-01
1.000000e+00
1.000000e+00
1.000000e+00
1.000000e+00
1.000000e+00
9.999998e-01
9.999994e-01
9.999977e-01
9.999926e-01
9.999785e-01
9.999431e-01
9.998607e-01
9.996830e-01
9.993256e-01
9.986502e-01
9.974465e-01
9.954138e-01
9.921485e-01
9.871423e-01
9.797934e-01
9.694353e-01
9.553817e-01
9.369842e-01
9.136974e-01
8.851419e-01
8.511584e-01
8.118432e-01
7.675617e-01
7.189365e-01
6.668122e-01
6.122010e-01
5.562160e-01
5.000000e-01
4.446558e-01
3.911871e-01
3.404515e-01
2.931300e-01
2.497119e-01
2.104402e-01
1.724617e-01
1.000000e+00
1.000000e+00
1.000000e+00
1.000000e+00
1.000000e+00
9.999999e-01
9.999997e-01
9.999987e-01
9.999959e-01
9.999877e-01
9.999667e-01
9.999168e-01
9.998063e-01
9.995784e-01
9.991369e-01
9.983305e-01
9.969346e-01
9.946369e-01
9.910279e-01
9.856017e-01
9.777702e-01
9.668933e-01
9.523217e-01
9.334525e-01
9.097884e-01
8.809952e-01
8.469495e-01
8.077693e-01
7.638245e-01
7.157240e-01
6.642821e-01
6.104680e-01
5.553442e-01
5.000000e-01
4.454884e-01
3.927701e-01
3.426700e-01
2.958473e-01
2.527174e-01
2.102123e-01
1.000000e+00
1.000000e+00
1.000000e+00
1.000000e+00
1.000000e+00
1.000000e+00
9.999998e-01
9.999993e-01
9.999977e-01
9.999930e-01
9.999807e-01
9.999506e-01
9.998824e-01
9.997384e-01
9.994527e-01
9.989180e-01
9.979701e-01
9.963723e-01
9.938028e-01
9.898481e-01
9.840071e-01
9.757071e-01
9.643340e-01
9.492747e-01
9.299685e-01
9.059626e-01
8.769633e-01
8.428791e-01
8.038464e-01
7.602378e-01
7.126482e-01
6.618635e-01
6.088129e-01
5.545116e-01
5.000000e-01
4.462845e-01
3.942859e-01
3.447971e-01
2.983846e-01
2.517828e-01
1.000000e+00
1.000000e+00
1.000000e+00
1.000000e+00
1.000000e+00
1.000000e+00
9.999999e-01
9.999996e-01
9.999987e-01
9.999961e-01
9.999888e-01
9.999708e-01
9.999291e-01
9.998389e-01
9.996556e-01
9.993046e-01
9.986677e-01
9.975689e-01
9.957608e-01
9.929140e-01
9.886134e-01
9.823643e-01
9.736104e-01
9.617637e-01
9.462455e-01
9.265348e-01
9.022194e-01
8.730426e-01
8.389406e-01
8.000658e-01
7.567917e-01
7.096997e-01
6.595485e-01
6.072299e-01
5.537155e-01
5.000000e-01
4.470467e-01
3.957376e-01
3.467565e-01
2.966610e-01
1.000000e+00
1.000000e+00
1.000000e+00
1.000000e+00
1.000000e+00
1.000000e+00
1.000000e+00
9.999998e-01
9.999993e-01
9.999978e-01
9.999936e-01
9.999829e-01
9.999575e-01
9.999014e-01
9.997849e-01
9.995566e-01
9.991329e-01
9.983852e-01
9.971270e-01
9.951015e-01
9.919736e-01
9.873282e-01
9.806789e-01
9.714862e-01
9.591878e-01
9.432380e-01
9.231531e-01
8.985579e-01
8.692291e-01
8.351276e-01
7.964193e-01
7.534775e-01
7.068700e-01
6.573300e-01
6.057141e-01
5.529533e-01
5.000000e-01
4.477756e-01
3.970403e-01
3.441979e-01
1.000000e+00
1.000001e+00
1.000002e+00
1.000001e+00
1.000001e+00
1.000001e+00
1.000000e+00
1.000000e+00
9.999998e-01
9.999988e-01
9.999964e-01
9.999900e-01
9.999747e-01
9.999401e-01
9.998666e-01
9.997194e-01
9.994401e-01
9.989364e-01
9.980701e-01
9.966449e-01
9.943961e-01
9.909845e-01
9.859969e-01
9.789560e-01
9.693398e-01
9.566113e-01
9.402560e-01
9.198249e-01
8.949773e-01
8.655196e-01
8.314350e-01
7.929003e-01
7.502881e-01
7.041527e-01
6.552029e-01
6.042624e-01
5.522244e-01
5.000000e-01
4.483808e-01
3.936430e-01
1.000062e+00
1.000093e+00
1.000076e+00
1.000050e+00
1.000030e+00
1.000017e+00
1.000009e+00
1.000005e+00
1.000002e+00
1.000001e+00
9.999986e-01
9.999946e-01
9.999852e-01