# vtk DataFile Version 3.0
QUICK_DC(JC)
ASCII
DATASET STRUCTURED_GRID
DIMENSIONS 41 41 1
POINTS 1681 double
0.000000e+00 0.000000e+00 0.0
2.500000e-02 0.000000e+00 0.0
5.000000e-02 0.000000e+00 0.0
7.500000e-02 0.000000e+00 0.0
1.000000e-01 0.000000e+00 0.0
1.250000e-01 0.000000e+00 0.0
1.500000e-01 0.000000e+00 0.0
1.750000e-01 0.000000e+00 0.0
2.000000e-01 0.000000e+00 0.0
2.250000e-01 0.000000e+00 0.0
2.500000e-01 0.000000e+00 0.0
2.750000e-01 0.000000e+00 0.0
3.000000e-01 0.000000e+00 0.0
3.250000e-01 0.000000e+00 0.0
3.500000e-01 0.000000e+00 0.0
3.750000e-01 0.000000e+00 0.0
4.000000e-01 0.000000e+00 0.0
4.250000e-01 0.000000e+00 0.0
4.500000e-01 0.000000e+00 0.0
4.750000e-01 0.000000e+00 0.0
5.000000e-01 0.000000e+00 0.0
5.250000e-01 0.000000e+00 0.0
5.500000e-01 0.000000e+00 0.0
5.750000e-01 0.000000e+00 0.0
6.000000e-01 0.000000e+00 0.0
6.250000e-01 0.000000e+00 0.0
6.500000e-01 0.000000e+00 0.0
6.750000e-01 0.000000e+00 0.0
7.000000e-01 0.000000e+00 0.0
7.250000e-01 0.000000e+00 0.0
7.500000e-01 0.000000e+00 0.0
7.750000e-01 0.000000e+00 0.0
8.000000e-01 0.000000e+00 0.0
8.250000e-01 0.000000e+00 0.0
8.500000e-01 0.000000e+00 0.0
8.750000e-01 0.000000e+00 0.0
9.000000e-01 0.000000e+00 0.0
9.250000e-01 0.000000e+00 0.0
9.500000e-01 0.000000e+00 0.0
9.750000e-01 0.000000e+00 0.0
1.000000e+00 0.000000e+00 0.0
0.000000e+00 2.500000e-02 0.0
2.500000e-02 2.500000e-02 0.0
5.000000e-02 2.500000e-02 0.0
7.500000e-02 2.500000e-02 0.0
1.000000e-01 2.500000e-02 0.0
1.250000e-01 2.500000e-02 0.0
1.500000e-01 2.500000e-02 0.0
1.750000e-01 2.500000e-02 0.0
2.000000e-01 2.500000e-02 0.0
2.250000e-01 2.500000e-02 0.0
2.500000e-01 2.500000e-02 0.0
2.750000e-01 2.500000e-02 0.0
3.000000e-01 2.500000e-02 0.0
3.250000e-01 2.500000e-02 0.0
3.500000e-01 2.500000e-02 0.0
3.750000e-01 2.500000e-02 0.0
4.000000e-01 2.500000e-02 0.0
4.250000e-01 2.500000e-02 0.0
4.500000e-01 2.500000e-02 0.0
4.750000e-01 2.500000e-02 0.0
5.000000e-01 2.500000e-02 0.0
5.250000e-01 2.500000e-02 0.0
5.500000e-01 2.500000e-02 0.0
5.750000e-01 2.500000e-02 0.0
6.000000e-01 2.500000e-02 0.0
6.250000e-01 2.500000e-02 0.0
6.500000e-01 2.500000e-02 0.0
6.750000e-01 2.500000e-02 0.0
7.000000e-01 2.500000e-02 0.0
7.250000e-01 2.500000e-02 0.0
7.500000e-01 2.500000e-02 0.0
7.750000e-01 2.500000e-02 0.0
8.000000e-01 2.500000e-02 0.0
8.250000e-01 2.500000e-02 0.0
8.500000e-01 2.500000e-02 0.0
8.750000e-01 2.500000e-02 0.0
9.000000e-01 2.500000e-02 0.0
9.250000e-01 2.500000e-02 0.0
9.500000e-01 2.500000e-02 0.0
9.750000e-01 2.500000e-02 0.0
1.000000e+00 2.500000e-02 0.0
0.000000e+00 5.000000e-02 0.0
2.500000e-02 5.000000e-02 0.0
5.000000e-02 5.000000e-02 0.0
7.500000e-02 5.000000e-02 0.0
1.000000e-01 5.000000e-02 0.0
1.250000e-01 5.000000e-02 0.0
1.500000e-01 5.000000e-02 0.0
1.750000e-01 5.000000e-02 0.0
2.000000e-01 5.000000e-02 0.0
2.250000e-01 5.000000e-02 0.0
2.500000e-01 5.000000e-02 0.0
2.750000e-01 5.000000e-02 0.0
3.000000e-01 5.000000e-02 0.0
3.250000e-01 5.000000e-02 0.0
3.500000e-01 5.000000e-02 0.0
3.750000e-01 5.000000e-02 0.0
4.000000e-01 5.000000e-02 0.0
4.250000e-01 5.000000e-02 0.0
4.500000e-01 5.000000e-02 0.0
4.750000e-01 5.000000e-02 0.0
5.000000e-01 5.000000e-02 0.0
5.250000e-01 5.000000e-02 0.0
5.500000e-01 5.000000e-02 0.0
5.750000e-01 5.000000e-02 0.0
6.000000e-01 5.000000e-02 0.0
6.250000e-01 5.000000e-02 0.0
6.500000e-01 5.000000e-02 0.0
6.750000e-01 5.000000e-02 0.0
7.000000e-01 5.000000e-02 0.0
7.250000e-01 5.000000e-02 0.0
7.500000e-01 5.000000e-02 0.0
7.750000e-01 5.000000e-02 0.0
8.000000e-01 5.000000e-02 0.0
8.250000e-01 5.000000e-02 0.0
8.500000e-01 5.000000e-02 0.0
8.750000e-01 5.000000e-02 0.0
9.000000e-01 5.000000e-02 0.0
9.250000e-01 5.000000e-02 0.0
9.500000e-01 5.000000e-02 0.0
9.750000e-01 5.000000e-02 0.0
1.000000e+00 5.000000e-02 0.0
0.000000e+00 7.500000e-02 0.0
2.500000e-02 7.500000e-02 0.0
5.000000e-02 7.500000e-02 0.0
7.500000e-02 7.500000e-02 0.0
1.000000e-01 7.500000e-02 0.0
1.250000e-01 7.500000e-02 0.0
1.500000e-01 7.500000e-02 0.0
1.750000e-01 7.500000e-02 0.0
2.000000e-01 7.500000e-02 0.0
2.250000e-01 7.500000e-02 0.0
2.500000e-01 7.500000e-02 0.0
2.750000e-01 7.500000e-02 0.0
3.000000e-01 7.500000e-02 0.0
3.250000e-01 7.500000e-02 0.0
3.500000e-01 7.500000e-02 0.0
3.750000e-01 7.500000e-02 0.0
4.000000e-01 7.500000e-02 0.0
4.250000e-01 7.500000e-02 0.0
4.500000e-01 7.500000e-02 0.0
4.750000e-01 7.500000e-02 0.0
5.000000e-01 7.500000e-02 0.0
5.250000e-01 7.500000e-02 0.0
5.500000e-01 7.500000e-02 0.0
5.750000e-01 7.500000e-02 0.0
6.000000e-01 7.500000e-02 0.0
6.250000e-01 7.500000e-02 0.0
6.500000e-01 7.500000e-02 0.0
6.750000e-01 7.500000e-02 0.0
7.000000e-01 7.500000e-02 0.0
7.250000e-01 7.500000e-02 0.0
7.500000e-01 7.500000e-02 0.0
7.750000e-01 7.500000e-02 0.0
8.000000e-01 7.500000e-02 0.0
8.250000e-01 7.500000e-02 0.0
8.500000e-01 7.500000e-02 0.0
8.750000e-01 7.500000e-02 0.0
9.000000e-01 7.500000e-02 0.0
9.250000e-01 7.500000e-02 0.0
9.500000e-01 7.500000e-02 0.0
9.750000e-01 7.500000e-02 0.0
1.000000e+00 7.500000e-02 0.0
0.000000e+00 1.000000e-01 0.0
2.500000e-02 1.000000e-01 0.0
5.000000e-02 1.000000e-01 0.0
7.500000e-02 1.000000e-01 0.0
1.000000e-01 1.000000e-01 0.0
1.250000e-01 1.000000e-01 0.0
1.500000e-01 1.000000e-01 0.0
1.750000e-01 1.000000e-01 0.0
2.000000e-01 1.000000e-01 0.0
2.250000e-01 1.000000e-01 0.0
2.500000e-01 1.000000e-01 0.0
2.750000e-01 1.000000e-01 0.0
3.000000e-01 1.000000e-01 0.0
3.250000e-01 1.000000e-01 0.0
3.500000e-01 1.000000e-01 0.0
3.750000e-01 1.000000e-01 0.0
4.000000e-01 1.000000e-01 0.0
4.250000e-01 1.000000e-01 0.0
4.500000e-01 1.000000e-01 0.0
4.750000e-01 1.000000e-01 0.0
5.000000e-01 1.000000e-01 0.0
5.250000e-01 1.000000e-01 0.0
5.500000e-01 1.000000e-01 0.0
5.750000e-01 1.000000e-01 0.0
6.000000e-01 1.000000e-01 0.0
6.250000e-01 1.000000e-01 0.0
6.500000e-01 1.000000e-01 0.0
6.750000e-01 1.000000e-01 0.0
7.000000e-01 1.000000e-01 0.0
7.250000e-01 1.000000e-01 0.0
7.500000e-01 1.000000e-01 0.0
7.750000e-01 1.000000e-01 0.0
8.000000e-01 1.000000e-01 0.0
8.250000e-01 1.000000e-01 0.0
8.500000e-01 1.000000e-01 0.0
8.750000e-01 1.000000e-01 0.0
9.000000e-01 1.000000e-01 0.0
9.250000e-01 1.000000e-01 0.0
9.500000e-01 1.000000e-01 0.0
9.750000e-01 1.000000e-01 0.0
1.000000e+00 1.000000e-01 0.0
0.000000e+00 1.250000e-01 0.0
2.500000e-02 1.250000e-01 0.0
5.000000e-02 1.250000e-01 0.0
7.500000e-02 1.250000e-01 0.0
1.000000e-01 1.250000e-01 0.0
1.250000e-01 1.250000e-01 0.0
1.500000e-01 1.250000e-01 0.0
1.750000e-01 1.250000e-01 0.0
2.000000e-01 1.250000e-01 0.0
2.250000e-01 1.250000e-01 0.0
2.500000e-01 1.250000e-01 0.0
2.750000e-01 1.250000e-01 0.0
3.000000e-01 1.250000e-01 0.0
3.250000e-01 1.250000e-01 0.0
3.500000e-01 1.250000e-01 0.0
3.750000e-01 1.250000e-01 0.0
4.000000e-01 1.250000e-01 0.0
4.250000e-01 1.250000e-01 0.0
4.500000e-01 1.250000e-01 0.0
4.750000e-01 1.250000e-01 0.0
5.000000e-01 1.250000e-01 0.0
5.250000e-01 1.250000e-01 0.0
5.500000e-01 1.250000e-01 0.0
5.750000e-01 1.250000e-01 0.0
6.000000e-01 1.250000e-01 0.0
6.250000e-01 1.250000e-01 0.0
6.500000e-01 1.250000e-01 0.0
6.750000e-01 1.250000e-01 0.0
7.000000e-01 1.250000e-01 0.0
7.250000e-01 1.250000e-01 0.0
7.500000e-01 1.250000e-01 0.0
7.750000e-01 1.250000e-01 0.0
8.000000e-01 1.250000e-01 0.0
8.250000e-01 1.250000e-01 0.0
8.500000e-01 1.250000e-01 0.0
8.750000e-01 1.250000e-01 0.0
9.000000e-01 1.250000e-01 0.0
9.250000e-01 1.250000e-01 0.0
9.500000e-01 1.250000e-01 0.0
9.750000e-01 1.250000e-01 0.0
1.000000e+00 1.250000e-01 0.0
0.000000e+00 1.500000e-01 0.0
2.500000e-02 1.500000e-01 0.0
5.000000e-02 1.500000e-01 0.0
7.500000e-02 1.500000e-01 0.0
1.000000e-01 1.500000e-01 0.0
1.250000e-01 1.500000e-01 0.0
1.500000e-01 1.500000e-01 0.0
1.750000e-01 1.500000e-01 0.0
2.000000e-01 1.500000e-01 0.0
2.250000e-01 1.500000e-01 0.0
2.500000e-01 1.500000e-01 0.0
2.750000e-01 1.500000e-01 0.0
3.000000e-01 1.500000e-01 0.0
3.250000e-01 1.500000e-01 0.0
3.500000e-01 1.500000e-01 0.0
3.750000e-01 1.500000e-01 0.0
4.000000e-01 1.500000e-01 0.0
4.250000e-01 1.500000e-01 0.0
4.500000e-01 1.500000e-01 0.0
4.750000e-01 1.500000e-01 0.0
5.000000e-01 1.500000e-01 0.0
5.250000e-01 1.500000e-01 0.0
5.500000e-01 1.500000e-01 0.0
5.750000e-01 1.500000e-01 0.0
6.000000e-01 1.500000e-01 0.0
6.250000e-01 1.500000e-01 0.0
6.500000e-01 1.500000e-01 0.0
6.750000e-01 1.500000e-01 0.0
7.000000e-01 1.500000e-01 0.0
7.250000e-01 1.500000e-01 0.0
7.500000e-01 1.500000e-01 0.0
7.750000e-01 1.500000e-01 0.0
8.000000e-01 1.500000e-01 0.0
8.250000e-01 1.500000e-01 0.0
8.500000e-01 1.500000e-01 0.0
8.750000e-01 1.500000e-01 0.0
9.000000e-01 1.500000e-01 0.0
9.250000e-01 1.500000e-01 0.0
9.500000e-01 1.500000e-01 0.0
9.750000e-01 1.500000e-01 0.0
1.000000e+00 1.500000e-01 0.0
0.000000e+00 1.750000e-01 0.0
2.500000e-02 1.750000e-01 0.0
5.000000e-02 1.750000e-01 0.0
7.500000e-02 1.750000e-01 0.0
1.000000e-01 1.750000e-01 0.0
1.250000e-01 1.750000e-01 0.0
1.500000e-01 1.750000e-01 0.0
1.750000e-01 1.750000e-01 0.0
2.000000e-01 1.750000e-01 0.0
2.250000e-01 1.750000e-01 0.0
2.500000e-01 1.750000e-01 0.0
2.750000e-01 1.750000e-01 0.0
3.000000e-01 1.750000e-01 0.0
3.250000e-01 1.750000e-01 0.0
3.500000e-01 1.750000e-01 0.0
3.750000e-01 1.750000e-01 0.0
4.000000e-01 1.750000e-01 0.0
4.250000e-01 1.750000e-01 0.0
4.500000e-01 1.750000e-01 0.0
4.750000e-01 1.750000e-01 0.0
5.000000e-01 1.750000e-01 0.0
5.250000e-01 1.750000e-01 0.0
5.500000e-01 1.750000e-01 0.0
5.750000e-01 1.750000e-01 0.0
6.000000e-01 1.750000e-01 0.0
6.250000e-01 1.750000e-01 0.0
6.500000e-01 1.750000e-01 0.0
6.750000e-01 1.750000e-01 0.0
7.000000e-01 1.750000e-01 0.0
7.250000e-01 1.750000e-01 0.0
7.500000e-01 1.750000e-01 0.0
7.750000e-01 1.750000e-01 0.0
8.000000e-01 1.750000e-01 0.0
8.250000e-01 1.750000e-01 0.0
8.500000e-01 1.750000e-01 0.0
8.750000e-01 1.750000e-01 0.0
9.000000e-01 1.750000e-01 0.0
9.250000e-01 1.750000e-01 0.0
9.500000e-01 1.750000e-01 0.0
9.750000e-01 1.750000e-01 0.0
1.000000e+00 1.750000e-01 0.0
0.000000e+00 2.000000e-01 0.0
[...]
CELL_DATA 1600
SCALARS Temperature double 1
LOOKUP_TABLE default
5.000000e-01
6.188383e-02
-3.961207e-02
-2.603573e-02
-2.989188e-03
4.671583e-03
2.944561e-03
1.600668e-04
-7.648569e-04
-4.409180e-04
5.092414e-06
1.424306e-04
7.509955e-05
-6.114869e-06
-2.856422e-05
-1.375402e-05
2.163462e-06
6.006668e-06
2.632127e-06
-6.371586e-07
-1.304638e-06
-5.173849e-07
1.756919e-07
2.899520e-07
1.032299e-07
-4.699133e-08
-6.552921e-08
-2.070995e-08
1.236594e-08
1.499388e-08
4.140793e-09
-3.223173e-09
-3.462294e-09
-8.169333e-10
8.349704e-10
8.047545e-10
1.576634e-10
-2.179527e-10
-1.850793e-10
-1.055382e-11
9.381162e-01
5.000000e-01
1.358053e-01
-2.328111e-02
-4.225368e-02
-1.681274e-02
1.921477e-03
5.544756e-03
2.382416e-03
-3.733865e-04
-9.332630e-04
-3.910145e-04
8.642355e-05
1.767028e-04
6.966707e-05
-2.092826e-05
-3.578957e-05
-1.302164e-05
5.157802e-06
7.567921e-06
2.502109e-06
-1.282846e-06
-1.647947e-06
-4.873290e-07
3.208825e-07
3.663867e-07
9.508462e-08
-8.057052e-08
-8.269399e-08
-1.836329e-08
2.028428e-08
1.887013e-08
3.456930e-09
-5.116158e-09
-4.340078e-09
-6.196067e-10
1.291846e-09
1.011220e-09
6.637510e-11
-2.552929e-10
1.039612e+00
8.641947e-01
5.000000e-01
1.696000e-01
-6.241955e-03
-4.667000e-02
-2.668076e-02
-2.957413e-03
5.866208e-03
4.214981e-03
6.057502e-04
-9.777312e-04
-7.505652e-04
-1.073866e-04
1.889216e-04
1.446245e-04
1.831518e-05
-3.962965e-05
-2.931855e-05
-2.961648e-06
8.738809e-06
6.149572e-06
4.243967e-07
-1.990614e-06
-1.320660e-06
-4.200066e-08
4.635985e-07
2.883444e-07
-2.965363e-09
-1.096699e-07
-6.367975e-08
3.658704e-09
2.623842e-08
1.417007e-08
-1.563652e-09
-6.328090e-09
-3.173543e-09
5.508183e-10
1.557899e-09
4.483156e-10
1.026036e+00
1.023281e+00
8.304000e-01
5.000000e-01
1.906254e-01
8.136103e-03
-4.699515e-02
-3.376546e-02
-8.140546e-03
4.913643e-03
5.466479e-03
1.754612e-03
-6.981493e-04
-9.852130e-04
-3.507712e-04
1.248001e-04
1.932528e-04
7.071926e-05
-2.581794e-05
-4.014477e-05
-1.449176e-05
5.833375e-06
8.674122e-06
3.008548e-06
-1.388592e-06
-1.927036e-06
-6.296180e-07
3.409117e-07
4.367972e-07
1.321405e-07
-8.525740e-08
-1.004807e-07
-2.766320e-08
2.156153e-08
2.336761e-08
5.743872e-09
-5.486301e-09
-5.522948e-09
-1.004461e-09
1.144519e-09
1.002989e+00
1.042254e+00
1.006242e+00
8.093746e-01
5.000000e-01
2.055568e-01
2.030275e-02
-4.544476e-02
-3.885993e-02
-1.307383e-02
3.215605e-03
6.155129e-03
2.873327e-03
-2.021556e-04
-1.071777e-03
-5.884824e-04
5.563811e-06
2.055739e-04
1.222457e-04
1.533329e-06
-4.235848e-05
-2.599683e-05
-3.754491e-07
9.184335e-06
5.644302e-06
2.066841e-08
-2.065195e-06
-1.245726e-06
2.024250e-08
4.767576e-07
2.783773e-07
-1.210889e-08
-1.122004e-07
-6.277583e-08
4.850317e-09
2.677680e-08
1.427321e-08
-1.717451e-09
-6.580743e-09
-2.088827e-09
9.953284e-01
1.016813e+00
1.046670e+00
9.918639e-01
7.944432e-01
5.000000e-01
2.170435e-01
3.080351e-02
-4.296163e-02
-4.253270e-02
-1.758547e-02
1.097426e-03
6.366774e-03
3.865780e-03
4.211290e-04
-1.019035e-03
-7.877511e-04
-1.460297e-04
1.813240e-04
1.633234e-04
3.681613e-05
-3.541707e-05
-3.487511e-05
-8.539965e-06
7.446157e-06
7.650044e-06
1.919276e-06
-1.655120e-06
-1.715359e-06
-4.245356e-07
3.833335e-07
3.913720e-07
9.283694e-08
-9.147630e-08
-9.050875e-08
-2.007251e-08
2.228994e-08
2.132374e-08
3.622178e-09
-4.497697e-09
9.970554e-01
9.980785e-01
1.026681e+00
1.046995e+00
9.796972e-01
7.829565e-01
5.000000e-01
2.263405e-01
4.002350e-02
-4.000421e-02
-4.516799e-02
-2.163977e-02
-1.239716e-03
6.194014e-03
4.690787e-03
1.105141e-03
-8.480272e-04
-9.315735e-04
-3.102788e-04
1.252619e-04
1.884257e-04
7.456889e-05
-2.038902e-05
-3.950856e-05
-1.721105e-05
3.692213e-06
8.575707e-06
3.933572e-06
-7.448124e-07
-1.916674e-06
-8.988716e-07
1.656142e-07
4.386464e-07
2.059600e-07
-3.977190e-08
-1.022754e-07
-4.743710e-08
1.026459e-08
2.455852e-08
6.874888e-09
9.998399e-01
9.944552e-01
1.002957e+00
1.033765e+00
1.045445e+00
9.691965e-01
7.736595e-01
5.000000e-01
2.341281e-01
4.823291e-02
-3.681315e-02
-4.702903e-02
-2.525339e-02
-3.670713e-03
5.719111e-03
5.336659e-03
1.802759e-03
-5.829434e-04
-1.013360e-03
-4.718331e-04
4.430705e-05
1.951831e-04
1.102222e-04
8.095763e-07
-3.916748e-05
-2.510656e-05
-1.566128e-06
8.210209e-06
5.716822e-06
5.336385e-07
-1.790187e-06
-1.311115e-06
-1.431778e-07
4.036361e-07
3.033736e-07
3.477233e-08
-9.352350e-08
-7.135472e-08
-5.583612e-09
1.756414e-08
1.000765e+00
9.976176e-01
9.941338e-01
1.008141e+00
1.038860e+00
1.042962e+00
9.599765e-01
7.658719e-01
5.000000e-01
2.408141e-01
5.562611e-02
-3.352207e-02
-4.830079e-02
-2.846184e-02
-6.117312e-03
5.010418e-03
5.807116e-03
2.481809e-03
-2.469911e-04
-1.032996e-03
-6.195674e-04
-5.412844e-05
1.834547e-04
1.403326e-04
2.594878e-05
-3.381622e-05
-3.123391e-05
-7.692678e-06
6.545797e-06
6.994704e-06
2.005902e-06
-1.333598e-06
-1.587258e-06
-4.966254e-07
2.853918e-07
3.653539e-07
1.202965e-07
-6.467628e-08
-8.562105e-08
-1.667946e-08
1.000441e+00
1.000373e+00
9.957850e-01
9.950864e-01
1.013074e+00
1.042533e+00
1.040004e+00
9.517671e-01
7.591859e-01
5.000000e-01
2.466617e-01
6.234683e-02
-3.020803e-02
-4.911649e-02
-3.130551e-02
-8.530600e-03
4.123143e-03
6.113496e-03
3.121085e-03
1.392823e-04
-9.941550e-04
-7.459532e-04
-1.630386e-04
1.545481e-04
1.625563e-04
5.282342e-05
-2.390643e-05
-3.492154e-05
-1.403709e-05
3.726472e-06
7.583362e-06
3.488860e-06
-5.895134e-07
-1.678048e-06
-8.447168e-07
9.567787e-08
3.790360e-07
2.039655e-07
-2.430297e-08
-6.651350e-08
9.999949e-01
1.000933e+00
9.993942e-01
9.945335e-01
9.967844e-01
1.017585e+00
1.045168e+00
1.036813e+00
9.443739e-01
7.533383e-01
5.000000e-01
2.518500e-01
6.850406e-02
-2.691648e-02
-4.957426e-02
-3.382391e-02
-1.088035e-02
3.101313e-03
6.270464e-03
3.707248e-03
5.584707e-04
-9.025372e-04
-8.463236e-04
-2.762527e-04
1.106252e-04
1.755060e-04
7.944671e-05
-1.019555e-05
-3.579914e-05
-2.000595e-05
-4.306171e-09
7.389456e-06
4.814092e-06
3.689950e-07
-1.560394e-06
-1.141148e-06
-1.453518e-07
3.417701e-07
2.667727e-07
1.600163e-08
9.998576e-01
1.000391e+00
1.000978e+00
9.982454e-01
9.938449e-01
9.989026e-01
1.021640e+00
1.047029e+00
1.033522e+00
9.376532e-01
7.481500e-01
5.000000e-01
2.565066e-01
7.418235e-02
-2.367438e-02
-4.974780e-02
-3.605338e-02
-1.314841e-02
1.979851e-03
6.293667e-03
4.232519e-03
9.962362e-04
-7.647508e-04
-9.181946e-04
-3.885905e-04
5.427724e-05
1.785706e-04
1.041447e-04
6.397345e-06
-3.375305e-05
-2.510251e-05
-4.349222e-06
6.399870e-06
5.842236e-06
1.452099e-06
-1.234804e-06
-1.349297e-06
-4.116077e-07
2.682002e-07
2.273131e-07
9.999249e-01
9.999136e-01
1.000751e+00
1.000698e+00
9.971267e-01
9.936332e-01
1.001240e+00
1.025253e+00
1.048301e+00
1.030208e+00
9.314959e-01
7.434934e-01
5.000000e-01
2.607257e-01
7.944854e-02
-2.049753e-02
-4.969342e-02
-3.802643e-02
-1.532451e-02
7.864058e-04
6.198480e-03
4.693000e-03
1.441003e-03
-5.876215e-04
-9.606936e-04
-4.958662e-04
-1.176497e-05
1.717364e-04
1.255870e-04
2.489826e-05
-2.887313e-05
-2.894385e-05
-8.993302e-06
4.666527e-06
6.469857e-06
2.565159e-06
-7.205372e-07
-1.452269e-06
-6.437967e-07
1.269428e-07
1.000006e+00
9.998233e-01
1.000107e+00
1.000985e+00
1.000202e+00
9.961342e-01
9.938060e-01
1.003671e+00
1.028462e+00
1.049116e+00
1.026916e+00
9.258177e-01
7.392743e-01
5.000000e-01
2.645785e-01
8.435644e-02
-1.739483e-02
-4.945482e-02
-3.977176e-02
-1.740355e-02
-4.571408e-04
5.999373e-03
5.087482e-03
1.883578e-03
-3.777820e-04
-9.741023e-04
-5.948145e-04
-8.482051e-05
1.554278e-04
1.427791e-04
4.435275e-05
-2.140033e-05
-3.126287e-05
-1.363048e-05
2.289802e-06
6.630216e-06
3.622193e-06
-6.230803e-08
-1.450923e-06
-6.169561e-07
1.000029e+00
9.999303e-01
9.998111e-01
1.000351e+00
1.001072e+00
9.995789e-01
9.953092e-01
9.942809e-01
1.006117e+00
1.031306e+00
1.049574e+00
1.023674e+00
9.205515e-01
7.354215e-01
5.000000e-01
2.681203e-01
8.894997e-02
-1.437078e-02
-4.906632e-02
-4.131455e-02
-1.938387e-02
-1.733468e-03
5.709627e-03
5.416578e-03
2.316769e-03
-1.414425e-04
-9.595032e-04
-6.829837e-04
-1.623744e-04
1.303741e-04
1.550338e-04
6.387449e-05
-1.167974e-05
-3.190095e-05
-1.798104e-05
-5.993093e-07
6.293670e-06
4.565830e-06
5.744315e-07
-1.015431e-06
1.000014e+00
1.000021e+00
9.998554e-01
9.998752e-01
1.000588e+00
1.001019e+00
9.988949e-01
9.946633e-01
9.949896e-01
1.008531e+00
1.033824e+00
1.049748e+00
1.020498e+00
9.156436e-01
7.318797e-01
5.000000e-01
2.713948e-01
9.326546e-02
-1.142713e-02
-4.855525e-02
-4.267680e-02
-2.126603e-02
-3.028861e-03
5.341243e-03
5.682117e-03
2.735044e-03
1.157251e-04
-9.185109e-04
-7.586174e-04
-2.421432e-04
9.750265e-05
1.619322e-04
8.267418e-05
-1.211552e-07
-3.079464e-05
-2.180174e-05
-3.865939e-06
5.517608e-06
5.251399e-06
8.528625e-07
9.999978e-01
1.000036e+00
9.999817e-01
9.998067e-01
9.999944e-01
1.000788e+00
1.000848e+00
9.981972e-01
9.941929e-01
9.958769e-01
1.010880e+00
1.036053e+00
1.049693e+00
1.017395e+00
9.110500e-01
7.286052e-01
5.000000e-01
2.744374e-01
9.733329e-02
-8.563831e-03
-4.794353e-02
-4.387775e-02
-2.305203e-02
-4.332468e-03
4.904956e-03
5.886715e-03
3.134226e-03
3.886308e-04
-8.530711e-04
-8.205407e-04
-3.221051e-04
5.785564e-05
1.632818e-04
1.000741e-04
1.283133e-05
-2.795278e-05
-2.491377e-05
-7.365544e-06
4.631375e-06
4.225613e-06
9.999940e-01
1.000013e+00
1.000040e+00
9.999293e-01
9.997944e-01
1.000146e+00
1.000932e+00
1.000583e+00
9.975182e-01
9.938865e-01
9.968987e-01
1.013148e+00
1.038026e+00
1.049455e+00
1.014371e+00
9.067345e-01
7.255626e-01
5.000000e-01
2.772767e-01
1.011792e-01
-5.779691e-03
-4.724895e-02
-4.493427e-02
-2.474483e-02
-5.635709e-03
4.410307e-03
6.033459e-03
3.511238e-03
6.727667e-04
-7.653139e-04
-8.680553e-04
-4.005086e-04
1.252636e-05
1.590772e-04
1.155086e-04
2.673025e-05
-2.342557e-05
-2.736235e-05
-1.030829e-05
2.778113e-06
9.999974e-01
9.999948e-01
1.000029e+00
1.000026e+00
9.998778e-01
9.998187e-01
1.000310e+00
1.001013e+00
1.000247e+00
9.968789e-01
9.937295e-01
9.980201e-01
1.015325e+00
1.039772e+00
1.049066e+00
1.011427e+00
9.026667e-01
7.227233e-01
5.000000e-01
2.799367e-01
1.048250e-01
-3.072814e-03
-4.648605e-02
-4.586112e-02
-2.634789e-02
-6.931818e-03
3.865738e-03
6.125702e-03
3.863892e-03
9.641822e-04
-6.574469e-04
-9.008478e-04
-4.758660e-04
-3.738585e-05
1.494616e-04
1.285037e-04
4.123783e-05
-1.756217e-05
-2.914244e-05
-9.328638e-06
1.000001e+00
9.999924e-01
1.000003e+00
1.000040e+00
9.999985e-01
9.998367e-01
9.998747e-01
1.000472e+00
1.001033e+00
9.998607e-01
9.962928e-01
9.937063e-01
9.992136e-01
1.017404e+00
1.041315e+00
1.048555e+00
1.008564e+00
8.988208e-01
7.200633e-01
5.000000e-01
2.824371e-01
1.082896e-01
-4.408650e-04
-4.566678e-02
-4.667129e-02
-2.786502e-02
-8.215480e-03
3.278699e-03
6.166904e-03
4.190713e-03
1.259446e-03
-5.316789e-04
-9.189106e-04
-5.469398e-04
-9.079610e-05
1.346486e-04
1.387528e-04
5.626366e-05
-1.270722e-05
-2.248075e-05
1.000001e+00
9.999975e-01
9.999913e-01
1.000014e+00
1.000042e+00
9.999632e-01
9.998116e-01
9.999557e-01
1.000620e+00
1.000994e+00
9.994415e-01
9.957675e-01
9.938015e-01
1.000457e+00
1.019384e+00
1.042677e+00
1.047944e+00
1.005780e+00
8.951750e-01
7.175629e-01
5.000000e-01
2.847949e-01
1.115893e-01
2.118733e-03
-4.480105e-02
-4.737625e-02
-2.930014e-02
-9.482541e-03
2.655749e-03
6.160533e-03
4.490796e-03
1.555598e-03
-3.901658e-04
-9.224817e-04
-6.127055e-04
-1.466631e-04
1.147061e-04
1.471960e-04
6.836331e-05
-6.913122e-06
1.000001e+00
1.000001e+00
9.999939e-01
9.999942e-01
1.000026e+00
1.000035e+00
9.999254e-01
9.998048e-01
1.000054e+00
1.000746e+00
1.000903e+00
9.990038e-01
9.953070e-01
9.940006e-01
1.001733e+00
1.021266e+00
1.043878e+00
1.047249e+00
1.003073e+00
8.917104e-01
7.152051e-01
5.000000e-01
2.870243e-01
1.147382e-01
4.608675e-03
-4.389712e-02
-4.798609e-02
-3.065721e-02
-1.072978e-02
2.002658e-03
6.109989e-03
4.763683e-03
1.850111e-03
-2.349796e-04
-9.120057e-04
-6.721870e-04
-2.045769e-04
9.091561e-05
1.554725e-04
5.675086e-05
9.999998e-01
1.000002e+00
9.999996e-01
9.999913e-01
1.000000e+00
1.000035e+00
1.000020e+00
9.998898e-01
9.998165e-01
1.000163e+00
1.000846e+00
1.000765e+00
9.985590e-01
9.949125e-01
9.942903e-01
1.003029e+00
1.023052e+00
1.044934e+00
1.046486e+00
1.000441e+00
8.884107e-01
7.129757e-01
5.000000e-01
2.891378e-01
1.177490e-01
7.031694e-03
-4.296191e-02
-4.850980e-02
-3.194011e-02
-1.195475e-02
1.324498e-03
6.018564e-03
5.009273e-03
2.140856e-03
-6.816957e-05
-8.878322e-04
-7.247999e-04
-2.658853e-04
7.638270e-05
1.206672e-04
9.999997e-01
1.000000e+00
1.000002e+00
9.999970e-01
9.999908e-01
1.000009e+00
1.000040e+00
9.999992e-01
9.998597e-01
9.998455e-01
1.000276e+00
1.000918e+00
1.000588e+00
9.981165e-01
9.945835e-01
9.946588e-01
1.004333e+00
1.024745e+00
1.045861e+00
1.045667e+00
9.978813e-01
8.852618e-01
7.108622e-01
5.000000e-01
2.911458e-01
1.206325e-01
9.390500e-03
-4.200123e-02
-4.895534e-02
-3.315264e-02
-1.315558e-02
6.257244e-04
5.889392e-03
5.227782e-03
2.425969e-03
1.082370e-04
-8.489808e-04
-7.767971e-04
-3.122509e-04
5.433748e-05
9.999999e-01
9.999997e-01
1.000001e+00
1.000001e+00
9.999944e-01
9.999926e-01
1.000017e+00
1.000039e+00
9.999740e-01
9.998374e-01
9.998893e-01
1.000388e+00
1.000961e+00
1.000378e+00
9.976831e-01
9.943178e-01
9.950950e-01
1.005636e+00
1.026348e+00
1.046671e+00
1.044801e+00
9.953913e-01
8.822510e-01
7.088542e-01
5.000000e-01
2.930577e-01
1.233986e-01
1.168774e-02
-4.101999e-02
-4.932980e-02
-3.429847e-02
-1.433091e-02
-8.976440e-05
5.725459e-03
5.419794e-03
2.702964e-03
2.956504e-04
-8.018923e-04
-8.329668e-04
-2.478302e-04
1.000000e+00
9.999996e-01
1.000000e+00
1.000002e+00
1.000000e+00
9.999923e-01
9.999963e-01
1.000025e+00
1.000034e+00
9.999474e-01
9.998248e-01
9.999461e-01
1.000496e+00
1.000974e+00
1.000142e+00
9.972651e-01
9.941133e-01
9.955897e-01
1.006932e+00
1.027865e+00
1.047376e+00
1.043897e+00
9.929683e-01
8.793675e-01
7.069423e-01
5.000000e-01
2.948817e-01
1.260558e-01
1.392599e-02
-4.002236e-02
-4.963953e-02
-3.538108e-02
-1.547977e-02
-8.186644e-04
5.530085e-03
5.584620e-03
2.971557e-03
5.017187e-04
-8.099133e-04
-6.511915e-04
1.000000e+00
9.999999e-01
9.999995e-01
1.000001e+00
1.000002e+00
9.999981e-01
9.999914e-01
1.000001e+00
1.000031e+00
1.000023e+00
9.999197e-01
9.998205e-01
1.000011e+00
1.000594e+00
1.000959e+00
9.998842e-01
9.968658e-01
9.939666e-01
9.961343e-01
1.008215e+00
1.029300e+00
1.047986e+00
1.042962e+00
9.906095e-01
8.766014e-01
7.051183e-01
5.000000e-01
2.966248e-01
1.286121e-01
1.610772e-02
-3.901187e-02
-4.989022e-02
-3.640373e-02
-1.660173e-02
-1.557569e-03
5.306454e-03
5.715431e-03
3.266421e-03
6.116737e-04
-6.469382e-04
1.000000e+00
1.000000e+00
9.999997e-01
9.999997e-01
1.000001e+00
1.000002e+00
9.999963e-01
9.999924e-01
1.000009e+00
1.000037e+00
1.000012e+00
9.998977e-01
9.998296e-01
1.000086e+00
1.000683e+00
1.000918e+00
9.996112e-01
9.964887e-01
9.938743e-01
9.967213e-01
1.009483e+00
1.030657e+00
1.048510e+00
1.042001e+00
9.883123e-01
8.739442e-01
7.033752e-01
5.000000e-01
2.982935e-01
1.310742e-01
1.823530e-02
-3.799160e-02
-5.008688e-02
-3.736965e-02
-1.769719e-02
-2.298978e-03
5.038707e-03
5.860645e-03
3.527958e-03
4.228744e-04
1.000000e+00
1.000000e+00
1.000000e+00
9.999996e-01
1.000000e+00
1.000001e+00
9.999997e-01
9.999919e-01
9.999897e-01
1.000010e+00
1.000032e+00
9.999904e-01
9.998725e-01
9.998439e-01
1.000162e+00
1.000759e+00
1.000853e+00
9.993273e-01
9.961361e-01
9.938331e-01
9.973442e-01
1.010730e+00
1.031940e+00
1.048955e+00
1.041020e+00
9.860740e-01
8.713879e-01
7.017065e-01
5.000000e-01
2.998933e-01
1.334486e-01
2.031099e-02
-3.696414e-02
-5.023350e-02
-3.828456e-02
-1.875748e-02
-3.057806e-03
4.728464e-03
6.213688e-03
2.682248e-03
1.000000e+00
1.000000e+00
1.000000e+00
9.999997e-01
9.999997e-01
1.000002e+00
1.000006e+00
1.000007e+00
1.000003e+00
1.000006e+00
1.000028e+00
1.000038e+00
9.999769e-01
9.998573e-01
9.998691e-01
1.000242e+00
1.000820e+00
1.000765e+00
9.990359e-01
9.958093e-01
9.938395e-01
9.979973e-01
1.011955e+00
1.033153e+00
1.049330e+00
1.040022e+00
9.838923e-01
8.689258e-01
7.001067e-01
5.000000e-01
3.014293e-01
1.357409e-01
2.233649e-02
-3.593031e-02
-5.033777e-02
-3.914646e-02
-1.976697e-02
-3.966986e-03
4.970726e-03
4.900918e-03
1.000000e+00
1.000000e+00
1.000000e+00
1.000000e+00
9.999975e-01
9.999916e-01
9.999856e-01
9.999810e-01
9.999763e-01
9.999746e-01
9.999889e-01
1.000020e+00
1.000028e+00
9.999569e-01
9.998462e-01
9.999030e-01
1.000322e+00
1.000868e+00
1.000657e+00
9.987405e-01
9.955092e-01
9.938900e-01
9.986755e-01
1.013156e+00
1.034298e+00
1.049640e+00
1.039012e+00
9.817647e-01
8.665514e-01
6.985707e-01
5.000000e-01
3.029062e-01
1.379558e-01
2.431505e-02
-3.489238e-02
-5.041925e-02
-3.987602e-02
-2.103135e-02
-4.187076e-03
4.312284e-03
1.000000e+00
9.999995e-01
9.999988e-01
1.000002e+00
1.000013e+00
1.000030e+00
1.000044e+00
1.000050e+00
1.000043e+00
1.000023e+00
1.000004e+00
1.000006e+00
1.000026e+00
1.000019e+00
9.999349e-01
9.998380e-01
9.999425e-01
1.000401e+00
1.000901e+00
1.000532e+00
9.984443e-01
9.952363e-01
9.939814e-01
9.993743e-01
1.014331e+00
1.035381e+00
1.049890e+00
1.037992e+00
9.796890e-01
8.642591e-01
6.970938e-01
5.000000e-01
3.043279e-01
1.400976e-01
2.626066e-02
-3.389524e-02
-5.033437e-02
-4.082032e-02
-2.219216e-02
-2.321751e-03
9.999999e-01
1.000002e+00
1.000000e+00
9.999804e-01
9.999438e-01
9.999068e-01
9.998902e-01
9.999033e-01
9.999370e-01
9.999711e-01
9.999902e-01
9.999992e-01
1.000015e+00
1.000034e+00
1.000012e+00
9.999165e-01
9.998361e-01
9.999873e-01
1.000476e+00
1.000919e+00
1.000390e+00
9.981499e-01
9.949907e-01
9.941106e-01
1.000090e+00
1.015480e+00
1.036404e+00
1.050087e+00
1.036964e+00
9.776635e-01
8.620442e-01
6.956721e-01
5.000000e-01
3.056880e-01
1.421895e-01
2.810452e-02
-3.280839e-02
-5.006646e-02
-4.318996e-02
-1.615789e-02
9.999981e-01
9.999937e-01
1.000022e+00
1.000100e+00
1.000192e+00
1.000243e+00
1.000225e+00
1.000155e+00
1.000074e+00
1.000016e+00
9.999879e-01
9.999805e-01
9.999890e-01
1.000013e+00
1.000034e+00
1.000001e+00
9.999002e-01
9.998406e-01
1.000037e+00
1.000547e+00
1.000923e+00
1.000235e+00
9.978592e-01
9.947722e-01
9.942745e-01
1.000819e+00
1.016602e+00
1.037370e+00
1.050234e+00
1.035930e+00
9.756850e-01
8.599024e-01
6.943120e-01
5.000000e-01
3.070274e-01
1.441966e-01
2.970919e-02
-3.083512e-02
-5.373378e-02
-3.345828e-02
1.000012e+00
9.999911e-01
9.998417e-01
9.996168e-01
9.994628e-01
9.994751e-01
9.996277e-01
9.998191e-01
9.999612e-01
1.000026e+00
1.000032e+00
1.000012e+00
9.999936e-01
9.999934e-01
1.000015e+00
1.000030e+00
9.999879e-01
9.998851e-01
9.998507e-01
1.000091e+00
1.000613e+00
1.000912e+00
1.000068e+00
9.975741e-01
9.945802e-01
9.944699e-01
1.001558e+00
1.017697e+00
1.038285e+00
1.050338e+00
1.034892e+00
9.737393e-01
8.578105e-01
6.929726e-01
5.000000e-01
3.085041e-01
1.457582e-01
3.344507e-02
-3.430496e-02
-4.489495e-02
9.999628e-01
1.000194e+00
1.000727e+00
1.001176e+00
1.001224e+00
1.000895e+00
1.000442e+00
1.000100e+00
9.999470e-01
9.999335e-01
9.999717e-01
1.000002e+00
1.000007e+00
9.999991e-01
1.000001e+00
1.000020e+00
1.000027e+00
9.999731e-01
9.998718e-01
9.998656e-01
1.000147e+00
1.000672e+00
1.000888e+00
9.998918e-01
9.972970e-01
9.944154e-01
9.946935e-01
1.002299e+00
1.018757e+00
1.039146e+00
1.050419e+00
1.033895e+00
9.718955e-01
8.558034e-01
6.914959e-01
5.000000e-01
3.084723e-01
1.494230e-01
3.197526e-02
-3.272173e-02
9.999599e-01
9.987672e-01
9.974569e-01
9.971284e-01
9.978414e-01
9.989264e-01
9.997522e-01
1.000113e+00
1.000143e+00
1.000059e+00
9.999953e-01
9.999807e-01
9.999899e-01
9.999965e-01
9.999973e-01
1.000006e+00
1.000025e+00
1.000023e+00
9.999583e-01
9.998612e-01
9.998854e-01
1.000205e+00
1.000725e+00
1.000849e+00
9.997043e-01
9.970284e-01
9.942846e-01
9.949613e-01
1.003058e+00
1.019767e+00
1.039876e+00
1.050334e+00
1.032808e+00
9.702908e-01
8.542418e-01
6.915277e-01
5.000000e-01
3.105978e-01
1.524672e-01
7.798786e-03
1.001275e+00
1.005357e+00
1.006844e+00
1.005251e+00
1.002574e+00
1.000579e+00
9.997530e-01
9.997035e-01
9.998908e-01
1.000019e+00
1.000042e+00
1.000019e+00
9.999987e-01
9.999927e-01
9.999921e-01
9.999951e-01
1.000009e+00
1.000028e+00
1.000017e+00
9.999434e-01
9.998527e-01
9.999091e-01
1.000266e+00