# vtk DataFile Version 3.0
13.TVD_MUSCL scheme
ASCII
DATASET STRUCTURED_GRID
DIMENSIONS 41 41 1
POINTS 1681 double
0.000000e+00 0.000000e+00 0.0
2.500000e-02 0.000000e+00 0.0
5.000000e-02 0.000000e+00 0.0
7.500000e-02 0.000000e+00 0.0
1.000000e-01 0.000000e+00 0.0
1.250000e-01 0.000000e+00 0.0
1.500000e-01 0.000000e+00 0.0
1.750000e-01 0.000000e+00 0.0
2.000000e-01 0.000000e+00 0.0
2.250000e-01 0.000000e+00 0.0
2.500000e-01 0.000000e+00 0.0
2.750000e-01 0.000000e+00 0.0
3.000000e-01 0.000000e+00 0.0
3.250000e-01 0.000000e+00 0.0
3.500000e-01 0.000000e+00 0.0
3.750000e-01 0.000000e+00 0.0
4.000000e-01 0.000000e+00 0.0
4.250000e-01 0.000000e+00 0.0
4.500000e-01 0.000000e+00 0.0
4.750000e-01 0.000000e+00 0.0
5.000000e-01 0.000000e+00 0.0
5.250000e-01 0.000000e+00 0.0
5.500000e-01 0.000000e+00 0.0
5.750000e-01 0.000000e+00 0.0
6.000000e-01 0.000000e+00 0.0
6.250000e-01 0.000000e+00 0.0
6.500000e-01 0.000000e+00 0.0
6.750000e-01 0.000000e+00 0.0
7.000000e-01 0.000000e+00 0.0
7.250000e-01 0.000000e+00 0.0
7.500000e-01 0.000000e+00 0.0
7.750000e-01 0.000000e+00 0.0
8.000000e-01 0.000000e+00 0.0
8.250000e-01 0.000000e+00 0.0
8.500000e-01 0.000000e+00 0.0
8.750000e-01 0.000000e+00 0.0
9.000000e-01 0.000000e+00 0.0
9.250000e-01 0.000000e+00 0.0
9.500000e-01 0.000000e+00 0.0
9.750000e-01 0.000000e+00 0.0
1.000000e+00 0.000000e+00 0.0
0.000000e+00 2.500000e-02 0.0
2.500000e-02 2.500000e-02 0.0
5.000000e-02 2.500000e-02 0.0
7.500000e-02 2.500000e-02 0.0
1.000000e-01 2.500000e-02 0.0
1.250000e-01 2.500000e-02 0.0
1.500000e-01 2.500000e-02 0.0
1.750000e-01 2.500000e-02 0.0
2.000000e-01 2.500000e-02 0.0
2.250000e-01 2.500000e-02 0.0
2.500000e-01 2.500000e-02 0.0
2.750000e-01 2.500000e-02 0.0
3.000000e-01 2.500000e-02 0.0
3.250000e-01 2.500000e-02 0.0
3.500000e-01 2.500000e-02 0.0
3.750000e-01 2.500000e-02 0.0
4.000000e-01 2.500000e-02 0.0
4.250000e-01 2.500000e-02 0.0
4.500000e-01 2.500000e-02 0.0
4.750000e-01 2.500000e-02 0.0
5.000000e-01 2.500000e-02 0.0
5.250000e-01 2.500000e-02 0.0
5.500000e-01 2.500000e-02 0.0
5.750000e-01 2.500000e-02 0.0
6.000000e-01 2.500000e-02 0.0
6.250000e-01 2.500000e-02 0.0
6.500000e-01 2.500000e-02 0.0
6.750000e-01 2.500000e-02 0.0
7.000000e-01 2.500000e-02 0.0
7.250000e-01 2.500000e-02 0.0
7.500000e-01 2.500000e-02 0.0
7.750000e-01 2.500000e-02 0.0
8.000000e-01 2.500000e-02 0.0
8.250000e-01 2.500000e-02 0.0
8.500000e-01 2.500000e-02 0.0
8.750000e-01 2.500000e-02 0.0
9.000000e-01 2.500000e-02 0.0
9.250000e-01 2.500000e-02 0.0
9.500000e-01 2.500000e-02 0.0
9.750000e-01 2.500000e-02 0.0
1.000000e+00 2.500000e-02 0.0
0.000000e+00 5.000000e-02 0.0
2.500000e-02 5.000000e-02 0.0
5.000000e-02 5.000000e-02 0.0
7.500000e-02 5.000000e-02 0.0
1.000000e-01 5.000000e-02 0.0
1.250000e-01 5.000000e-02 0.0
1.500000e-01 5.000000e-02 0.0
1.750000e-01 5.000000e-02 0.0
2.000000e-01 5.000000e-02 0.0
2.250000e-01 5.000000e-02 0.0
2.500000e-01 5.000000e-02 0.0
2.750000e-01 5.000000e-02 0.0
3.000000e-01 5.000000e-02 0.0
3.250000e-01 5.000000e-02 0.0
3.500000e-01 5.000000e-02 0.0
3.750000e-01 5.000000e-02 0.0
4.000000e-01 5.000000e-02 0.0
4.250000e-01 5.000000e-02 0.0
4.500000e-01 5.000000e-02 0.0
4.750000e-01 5.000000e-02 0.0
5.000000e-01 5.000000e-02 0.0
5.250000e-01 5.000000e-02 0.0
5.500000e-01 5.000000e-02 0.0
5.750000e-01 5.000000e-02 0.0
6.000000e-01 5.000000e-02 0.0
6.250000e-01 5.000000e-02 0.0
6.500000e-01 5.000000e-02 0.0
6.750000e-01 5.000000e-02 0.0
7.000000e-01 5.000000e-02 0.0
7.250000e-01 5.000000e-02 0.0
7.500000e-01 5.000000e-02 0.0
7.750000e-01 5.000000e-02 0.0
8.000000e-01 5.000000e-02 0.0
8.250000e-01 5.000000e-02 0.0
8.500000e-01 5.000000e-02 0.0
8.750000e-01 5.000000e-02 0.0
9.000000e-01 5.000000e-02 0.0
9.250000e-01 5.000000e-02 0.0
9.500000e-01 5.000000e-02 0.0
9.750000e-01 5.000000e-02 0.0
1.000000e+00 5.000000e-02 0.0
0.000000e+00 7.500000e-02 0.0
2.500000e-02 7.500000e-02 0.0
5.000000e-02 7.500000e-02 0.0
7.500000e-02 7.500000e-02 0.0
1.000000e-01 7.500000e-02 0.0
1.250000e-01 7.500000e-02 0.0
1.500000e-01 7.500000e-02 0.0
1.750000e-01 7.500000e-02 0.0
2.000000e-01 7.500000e-02 0.0
2.250000e-01 7.500000e-02 0.0
2.500000e-01 7.500000e-02 0.0
2.750000e-01 7.500000e-02 0.0
3.000000e-01 7.500000e-02 0.0
3.250000e-01 7.500000e-02 0.0
3.500000e-01 7.500000e-02 0.0
3.750000e-01 7.500000e-02 0.0
4.000000e-01 7.500000e-02 0.0
4.250000e-01 7.500000e-02 0.0
4.500000e-01 7.500000e-02 0.0
4.750000e-01 7.500000e-02 0.0
5.000000e-01 7.500000e-02 0.0
5.250000e-01 7.500000e-02 0.0
5.500000e-01 7.500000e-02 0.0
5.750000e-01 7.500000e-02 0.0
6.000000e-01 7.500000e-02 0.0
6.250000e-01 7.500000e-02 0.0
6.500000e-01 7.500000e-02 0.0
6.750000e-01 7.500000e-02 0.0
7.000000e-01 7.500000e-02 0.0
7.250000e-01 7.500000e-02 0.0
7.500000e-01 7.500000e-02 0.0
7.750000e-01 7.500000e-02 0.0
8.000000e-01 7.500000e-02 0.0
8.250000e-01 7.500000e-02 0.0
8.500000e-01 7.500000e-02 0.0
8.750000e-01 7.500000e-02 0.0
9.000000e-01 7.500000e-02 0.0
9.250000e-01 7.500000e-02 0.0
9.500000e-01 7.500000e-02 0.0
9.750000e-01 7.500000e-02 0.0
1.000000e+00 7.500000e-02 0.0
0.000000e+00 1.000000e-01 0.0
2.500000e-02 1.000000e-01 0.0
5.000000e-02 1.000000e-01 0.0
7.500000e-02 1.000000e-01 0.0
1.000000e-01 1.000000e-01 0.0
1.250000e-01 1.000000e-01 0.0
1.500000e-01 1.000000e-01 0.0
1.750000e-01 1.000000e-01 0.0
2.000000e-01 1.000000e-01 0.0
2.250000e-01 1.000000e-01 0.0
2.500000e-01 1.000000e-01 0.0
2.750000e-01 1.000000e-01 0.0
3.000000e-01 1.000000e-01 0.0
3.250000e-01 1.000000e-01 0.0
3.500000e-01 1.000000e-01 0.0
3.750000e-01 1.000000e-01 0.0
4.000000e-01 1.000000e-01 0.0
4.250000e-01 1.000000e-01 0.0
4.500000e-01 1.000000e-01 0.0
4.750000e-01 1.000000e-01 0.0
5.000000e-01 1.000000e-01 0.0
5.250000e-01 1.000000e-01 0.0
5.500000e-01 1.000000e-01 0.0
5.750000e-01 1.000000e-01 0.0
6.000000e-01 1.000000e-01 0.0
6.250000e-01 1.000000e-01 0.0
6.500000e-01 1.000000e-01 0.0
6.750000e-01 1.000000e-01 0.0
7.000000e-01 1.000000e-01 0.0
7.250000e-01 1.000000e-01 0.0
7.500000e-01 1.000000e-01 0.0
7.750000e-01 1.000000e-01 0.0
8.000000e-01 1.000000e-01 0.0
8.250000e-01 1.000000e-01 0.0
8.500000e-01 1.000000e-01 0.0
8.750000e-01 1.000000e-01 0.0
9.000000e-01 1.000000e-01 0.0
9.250000e-01 1.000000e-01 0.0
9.500000e-01 1.000000e-01 0.0
9.750000e-01 1.000000e-01 0.0
1.000000e+00 1.000000e-01 0.0
0.000000e+00 1.250000e-01 0.0
2.500000e-02 1.250000e-01 0.0
5.000000e-02 1.250000e-01 0.0
7.500000e-02 1.250000e-01 0.0
1.000000e-01 1.250000e-01 0.0
1.250000e-01 1.250000e-01 0.0
1.500000e-01 1.250000e-01 0.0
1.750000e-01 1.250000e-01 0.0
2.000000e-01 1.250000e-01 0.0
2.250000e-01 1.250000e-01 0.0
2.500000e-01 1.250000e-01 0.0
2.750000e-01 1.250000e-01 0.0
3.000000e-01 1.250000e-01 0.0
3.250000e-01 1.250000e-01 0.0
3.500000e-01 1.250000e-01 0.0
3.750000e-01 1.250000e-01 0.0
4.000000e-01 1.250000e-01 0.0
4.250000e-01 1.250000e-01 0.0
4.500000e-01 1.250000e-01 0.0
4.750000e-01 1.250000e-01 0.0
5.000000e-01 1.250000e-01 0.0
5.250000e-01 1.250000e-01 0.0
5.500000e-01 1.250000e-01 0.0
5.750000e-01 1.250000e-01 0.0
6.000000e-01 1.250000e-01 0.0
6.250000e-01 1.250000e-01 0.0
6.500000e-01 1.250000e-01 0.0
6.750000e-01 1.250000e-01 0.0
7.000000e-01 1.250000e-01 0.0
7.250000e-01 1.250000e-01 0.0
7.500000e-01 1.250000e-01 0.0
7.750000e-01 1.250000e-01 0.0
8.000000e-01 1.250000e-01 0.0
8.250000e-01 1.250000e-01 0.0
8.500000e-01 1.250000e-01 0.0
8.750000e-01 1.250000e-01 0.0
9.000000e-01 1.250000e-01 0.0
9.250000e-01 1.250000e-01 0.0
9.500000e-01 1.250000e-01 0.0
9.750000e-01 1.250000e-01 0.0
1.000000e+00 1.250000e-01 0.0
0.000000e+00 1.500000e-01 0.0
2.500000e-02 1.500000e-01 0.0
5.000000e-02 1.500000e-01 0.0
7.500000e-02 1.500000e-01 0.0
1.000000e-01 1.500000e-01 0.0
1.250000e-01 1.500000e-01 0.0
1.500000e-01 1.500000e-01 0.0
1.750000e-01 1.500000e-01 0.0
2.000000e-01 1.500000e-01 0.0
2.250000e-01 1.500000e-01 0.0
2.500000e-01 1.500000e-01 0.0
2.750000e-01 1.500000e-01 0.0
3.000000e-01 1.500000e-01 0.0
3.250000e-01 1.500000e-01 0.0
3.500000e-01 1.500000e-01 0.0
3.750000e-01 1.500000e-01 0.0
4.000000e-01 1.500000e-01 0.0
4.250000e-01 1.500000e-01 0.0
4.500000e-01 1.500000e-01 0.0
4.750000e-01 1.500000e-01 0.0
5.000000e-01 1.500000e-01 0.0
5.250000e-01 1.500000e-01 0.0
5.500000e-01 1.500000e-01 0.0
5.750000e-01 1.500000e-01 0.0
6.000000e-01 1.500000e-01 0.0
6.250000e-01 1.500000e-01 0.0
6.500000e-01 1.500000e-01 0.0
6.750000e-01 1.500000e-01 0.0
7.000000e-01 1.500000e-01 0.0
7.250000e-01 1.500000e-01 0.0
7.500000e-01 1.500000e-01 0.0
7.750000e-01 1.500000e-01 0.0
8.000000e-01 1.500000e-01 0.0
8.250000e-01 1.500000e-01 0.0
8.500000e-01 1.500000e-01 0.0
8.750000e-01 1.500000e-01 0.0
9.000000e-01 1.500000e-01 0.0
9.250000e-01 1.500000e-01 0.0
9.500000e-01 1.500000e-01 0.0
9.750000e-01 1.500000e-01 0.0
1.000000e+00 1.500000e-01 0.0
0.000000e+00 1.750000e-01 0.0
2.500000e-02 1.750000e-01 0.0
5.000000e-02 1.750000e-01 0.0
7.500000e-02 1.750000e-01 0.0
1.000000e-01 1.750000e-01 0.0
1.250000e-01 1.750000e-01 0.0
1.500000e-01 1.750000e-01 0.0
1.750000e-01 1.750000e-01 0.0
2.000000e-01 1.750000e-01 0.0
2.250000e-01 1.750000e-01 0.0
2.500000e-01 1.750000e-01 0.0
2.750000e-01 1.750000e-01 0.0
3.000000e-01 1.750000e-01 0.0
3.250000e-01 1.750000e-01 0.0
3.500000e-01 1.750000e-01 0.0
3.750000e-01 1.750000e-01 0.0
4.000000e-01 1.750000e-01 0.0
4.250000e-01 1.750000e-01 0.0
4.500000e-01 1.750000e-01 0.0
4.750000e-01 1.750000e-01 0.0
5.000000e-01 1.750000e-01 0.0
5.250000e-01 1.750000e-01 0.0
5.500000e-01 1.750000e-01 0.0
5.750000e-01 1.750000e-01 0.0
6.000000e-01 1.750000e-01 0.0
6.250000e-01 1.750000e-01 0.0
6.500000e-01 1.750000e-01 0.0
6.750000e-01 1.750000e-01 0.0
7.000000e-01 1.750000e-01 0.0
7.250000e-01 1.750000e-01 0.0
7.500000e-01 1.750000e-01 0.0
7.750000e-01 1.750000e-01 0.0
8.000000e-01 1.750000e-01 0.0
8.250000e-01 1.750000e-01 0.0
8.500000e-01 1.750000e-01 0.0
8.750000e-01 1.750000e-01 0.0
9.000000e-01 1.750000e-01 0.0
9.250000e-01 1.750000e-01 0.0
9.500000e-01 1.750000e-01 0.0
9.750000e-01 1.750000e-01 0.0
1.000000e+00 1.750000e-01 0.0
0.000000e+00 2.000000e-01 0.0
[...]
CELL_DATA 1600
SCALARS Temperature double 1
LOOKUP_TABLE default
4.999997e-01
2.253189e-01
1.321605e-01
9.180075e-02
7.021643e-02
5.684010e-02
4.771454e-02
4.107780e-02
3.602905e-02
3.205807e-02
2.885327e-02
2.621325e-02
2.400190e-02
2.212390e-02
2.051051e-02
1.911088e-02
1.788666e-02
1.680835e-02
1.585291e-02
1.500211e-02
1.424135e-02
1.355883e-02
1.294490e-02
1.239162e-02
1.189243e-02
1.144187e-02
1.103535e-02
1.066907e-02
1.033980e-02
1.004485e-02
9.781981e-03
9.549315e-03
9.345314e-03
9.168732e-03
9.018578e-03
8.894104e-03
8.794776e-03
8.720266e-03
8.670443e-03
8.645366e-03
7.746792e-01
4.999971e-01
3.475280e-01
2.594046e-01
2.046350e-01
1.680870e-01
1.422061e-01
1.229974e-01
1.082063e-01
9.648078e-02
8.696623e-02
7.909766e-02
7.248740e-02
6.686097e-02
6.201870e-02
5.781208e-02
5.412839e-02
5.088065e-02
4.800070e-02
4.543447e-02
4.313854e-02
4.107772e-02
3.922323e-02
3.755136e-02
3.604247e-02
3.468018e-02
3.345080e-02
3.234284e-02
3.134667e-02
3.045421e-02
2.965870e-02
2.895451e-02
2.833701e-02
2.780246e-02
2.734789e-02
2.697103e-02
2.667029e-02
2.644469e-02
2.629383e-02
2.621789e-02
8.678362e-01
6.524622e-01
4.999917e-01
3.952807e-01
3.223675e-01
2.700632e-01
2.312872e-01
2.016416e-01
1.783571e-01
1.596433e-01
1.443079e-01
1.315325e-01
1.207405e-01
1.115150e-01
1.035481e-01
9.660797e-02
9.051688e-02
8.513664e-02
8.035828e-02
7.609484e-02
7.227622e-02
6.884538e-02
6.575550e-02
6.296793e-02
6.045054e-02
5.817652e-02
5.612340e-02
5.427231e-02
5.260740e-02
5.111535e-02
4.978502e-02
4.860713e-02
4.757405e-02
4.667959e-02
4.591883e-02
4.528807e-02
4.478466e-02
4.440699e-02
4.415443e-02
4.402731e-02
9.081947e-01
7.405815e-01
6.046959e-01
4.999835e-01
4.203543e-01
3.594435e-01
3.121671e-01
2.748208e-01
2.447887e-01
2.202318e-01
1.998470e-01
1.826979e-01
1.681003e-01
1.555463e-01
1.446527e-01
1.351257e-01
1.267372e-01
1.193078e-01
1.126946e-01
1.067828e-01
1.014791e-01
9.670741e-02
9.240475e-02
8.851901e-02
8.500671e-02
8.183145e-02
7.896267e-02
7.637462e-02
7.404563e-02
7.195750e-02
7.009495e-02
6.844526e-02
6.699794e-02
6.574450e-02
6.467821e-02
6.379395e-02
6.308813e-02
6.255855e-02
6.220437e-02
6.202610e-02
9.297776e-01
7.953470e-01
6.776022e-01
5.796031e-01
4.999725e-01
4.357222e-01
3.837380e-01
3.413422e-01
3.064075e-01
2.773010e-01
2.527855e-01
2.319246e-01
2.140059e-01
1.984830e-01
1.849329e-01
1.730249e-01
1.624974e-01
1.531418e-01
1.447902e-01
1.373061e-01
1.305780e-01
1.245137e-01
1.190370e-01
1.140844e-01
1.096024e-01
1.055464e-01
1.018785e-01
9.856699e-02
9.558491e-02
9.290960e-02
9.052206e-02
8.840641e-02
8.654957e-02
8.494092e-02
8.357207e-02
8.243664e-02
8.153016e-02
8.084993e-02
8.039496e-02
8.016593e-02
9.431526e-01
8.318909e-01
7.298997e-01
6.405042e-01
5.642103e-01
4.999586e-01
4.460817e-01
4.008443e-01
3.626838e-01
3.302863e-01
3.025834e-01
2.787209e-01
2.580195e-01
2.399397e-01
2.240514e-01
2.100102e-01
1.975384e-01
1.864109e-01
1.764439e-01
1.674865e-01
1.594137e-01
1.521218e-01
1.455242e-01
1.395481e-01
1.341323e-01
1.292251e-01
1.247827e-01
1.207680e-01
1.171496e-01
1.139012e-01
1.110002e-01
1.084282e-01
1.061698e-01
1.042124e-01
1.025462e-01
1.011638e-01
1.000598e-01
9.923130e-02
9.867705e-02
9.839803e-02
9.522768e-01
8.577677e-01
7.686688e-01
6.877709e-01
6.161819e-01
5.538200e-01
4.999417e-01
4.535301e-01
4.135269e-01
3.789503e-01
3.489407e-01
3.227700e-01
2.998317e-01
2.796256e-01
2.617405e-01
2.458381e-01
2.316402e-01
2.189167e-01
2.074771e-01
1.971627e-01
1.878407e-01
1.793998e-01
1.717463e-01
1.648008e-01
1.584962e-01
1.527753e-01
1.475899e-01
1.428984e-01
1.386661e-01
1.348631e-01
1.314644e-01
1.284491e-01
1.258000e-01
1.235029e-01
1.215467e-01
1.199231e-01
1.186263e-01
1.176527e-01
1.170014e-01
1.166735e-01
9.589122e-01
8.769723e-01
7.983075e-01
7.251075e-01
6.585651e-01
5.990420e-01
5.463351e-01
4.999220e-01
4.591408e-01
4.233027e-01
3.917549e-01
3.639094e-01
3.392520e-01
3.173415e-01
2.978030e-01
2.803198e-01
2.646251e-01
2.504940e-01
2.377369e-01
2.261939e-01
2.157294e-01
2.062284e-01
1.975934e-01
1.897409e-01
1.826000e-01
1.761100e-01
1.702189e-01
1.648826e-01
1.600630e-01
1.557283e-01
1.518511e-01
1.484088e-01
1.453826e-01
1.427570e-01
1.405202e-01
1.386629e-01
1.371790e-01
1.360647e-01
1.353191e-01
1.349437e-01
9.639596e-01
8.917593e-01
8.215852e-01
7.551300e-01
6.934874e-01
6.371871e-01
5.863200e-01
5.406822e-01
4.998995e-01
4.635194e-01
4.310709e-01
4.021008e-01
3.761917e-01
3.529701e-01
3.321077e-01
3.133189e-01
2.963572e-01
2.810106e-01
2.670971e-01
2.544606e-01
2.429673e-01
2.325022e-01
2.229668e-01
2.142762e-01
2.063575e-01
1.991480e-01
1.925937e-01
1.866485e-01
1.812727e-01
1.764325e-01
1.720992e-01
1.682488e-01
1.648614e-01
1.619209e-01
1.594143e-01
1.573322e-01
1.556681e-01
1.544182e-01
1.535817e-01
1.531605e-01
9.679292e-01
9.034807e-01
8.402920e-01
7.796772e-01
7.225814e-01
6.695693e-01
6.208785e-01
5.764992e-01
5.362558e-01
4.998742e-01
4.670331e-01
4.373980e-01
4.106431e-01
3.864634e-01
3.645810e-01
3.447468e-01
3.267402e-01
3.103671e-01
2.954581e-01
2.818652e-01
2.694599e-01
2.581305e-01
2.477799e-01
2.383242e-01
2.296902e-01
2.218149e-01
2.146437e-01
2.081292e-01
2.022311e-01
1.969146e-01
1.921502e-01
1.879130e-01
1.841825e-01
1.809419e-01
1.781781e-01
1.758814e-01
1.740450e-01
1.726653e-01
1.717418e-01
1.712766e-01
9.711327e-01
9.129912e-01
8.556207e-01
8.000524e-01
7.470844e-01
6.972570e-01
6.508700e-01
6.080261e-01
5.686805e-01
5.326888e-01
4.998463e-01
4.699178e-01
4.426585e-01
4.178277e-01
3.951973e-01
3.745562e-01
3.557125e-01
3.384934e-01
3.227450e-01
3.083307e-01
2.951301e-01
2.830370e-01
2.719584e-01
2.618127e-01
2.525286e-01
2.440439e-01
2.363042e-01
2.292627e-01
2.228787e-01
2.171173e-01
2.119486e-01
2.073477e-01
2.032937e-01
1.997697e-01
1.967625e-01
1.942621e-01
1.922621e-01
1.907592e-01
1.897528e-01
1.892460e-01
9.737714e-01
9.208558e-01
8.683893e-01
8.171921e-01
7.679331e-01
7.211045e-01
6.770229e-01
6.358510e-01
5.976272e-01
5.622977e-01
5.297458e-01
4.998160e-01
4.723318e-01
4.471099e-01
4.239686e-01
4.027339e-01
3.832429e-01
3.653457e-01
3.489057e-01
3.337997e-01
3.199173e-01
3.071598e-01
2.954398e-01
2.846799e-01
2.748117e-01
2.657750e-01
2.575172e-01
2.499923e-01
2.431603e-01
2.369869e-01
2.314425e-01
2.265024e-01
2.221458e-01
2.183560e-01
2.151199e-01
2.124280e-01
2.102738e-01
2.086545e-01
2.075700e-01
2.070237e-01
9.759814e-01
9.274621e-01
8.791747e-01
8.317802e-01
7.858397e-01
7.417910e-01
6.999436e-01
6.604880e-01
6.235131e-01
5.890267e-01
5.569765e-01
5.272688e-01
4.997833e-01
4.743856e-01
4.509355e-01
4.292935e-01
4.093250e-01
3.909027e-01
3.739080e-01
3.582323e-01
3.437762e-01
3.304501e-01
3.181733e-01
3.068737e-01
2.964869e-01
2.869560e-01
2.782307e-01
2.702668e-01
2.630257e-01
2.564741e-01
2.505835e-01
2.453295e-01
2.406920e-01
2.366549e-01
2.332054e-01
2.303344e-01
2.280360e-01
2.263076e-01
2.251499e-01
2.245666e-01
9.778581e-01
9.330846e-01
8.883936e-01
8.443249e-01
8.013507e-01
7.598561e-01
7.201322e-01
6.823784e-01
6.467119e-01
6.131808e-01
5.817791e-01
5.524598e-01
5.251475e-01
4.997484e-01
4.761585e-01
4.542692e-01
4.339719e-01
4.151612e-01
3.977364e-01
3.816035e-01
3.666751e-01
3.528711e-01
3.401185e-01
3.283513e-01
3.175100e-01
3.075417e-01
2.983990e-01
2.900404e-01
2.824293e-01
2.755337e-01
2.693266e-01
2.637846e-01
2.588886e-01
2.546230e-01
2.509760e-01
2.479389e-01
2.455064e-01
2.436766e-01
2.424507e-01
2.418329e-01
9.794703e-01
9.379230e-01
8.963541e-01
8.552095e-01
8.148890e-01
7.757300e-01
7.380003e-01
7.018971e-01
6.675518e-01
6.350381e-01
6.043818e-01
5.755707e-01
5.485646e-01
5.233028e-01
4.997117e-01
4.777096e-01
4.572118e-01
4.381328e-01
4.203893e-01
4.039015e-01
3.885941e-01
3.743967e-01
3.612446e-01
3.490785e-01
3.378443e-01
3.274935e-01
3.179826e-01
3.092728e-01
3.013301e-01
2.941246e-01
2.876307e-01
2.818268e-01
2.766946e-01
2.722198e-01
2.683913e-01
2.652012e-01
2.626452e-01
2.607217e-01
2.594327e-01
2.587831e-01
9.808687e-01
9.421259e-01
9.032879e-01
8.647276e-01
8.267855e-01
7.897571e-01
7.538859e-01
7.193609e-01
6.863186e-01
6.548477e-01
6.249956e-01
5.967757e-01
5.701742e-01
5.451573e-01
5.216764e-01
4.996732e-01
4.790835e-01
4.598402e-01
4.418762e-01
4.251250e-01
4.095232e-01
3.950102e-01
3.815295e-01
3.690289e-01
3.574601e-01
3.467794e-01
3.369473e-01
3.279286e-01
3.196918e-01
3.122097e-01
3.054585e-01
2.994181e-01
2.940721e-01
2.894071e-01
2.854132e-01
2.820835e-01
2.794142e-01
2.774049e-01
2.760580e-01
2.753792e-01
9.820917e-01
9.458059e-01
9.093728e-01
8.731074e-01
8.373018e-01
8.022151e-01
7.680675e-01
7.350367e-01
7.032588e-01
6.728303e-01
6.438128e-01
6.162375e-01
5.901112e-01
5.654206e-01
5.421379e-01
5.202241e-01
4.996333e-01
4.803145e-01
4.622150e-01
4.452812e-01
4.294607e-01
4.147025e-01
4.009583e-01
3.881828e-01
3.763339e-01
3.653728e-01
3.552644e-01
3.459770e-01
3.374824e-01
3.297557e-01
3.227757e-01
3.165242e-01
3.109861e-01
3.061497e-01
3.020062e-01
2.985499e-01
2.957778e-01
2.936904e-01
2.922908e-01
2.915853e-01
9.831688e-01
9.490501e-01
9.147470e-01
8.805284e-01
8.466464e-01
8.133291e-01
7.807750e-01
7.491494e-01
7.185845e-01
6.891800e-01
6.610060e-01
6.341064e-01
6.085027e-01
5.841982e-01
5.611814e-01
5.394295e-01
5.189119e-01
4.995921e-01
4.814300e-01
4.643840e-01
4.484116e-01
4.334712e-01
4.195223e-01
4.065266e-01
3.944478e-01
3.832525e-01
3.729097e-01
3.633917e-01
3.546736e-01
3.467333e-01
3.395519e-01
3.331134e-01
3.274044e-01
3.224149e-01
3.181373e-01
3.145670e-01
3.117024e-01
3.095444e-01
3.080972e-01
3.073675e-01
9.841231e-01
9.519265e-01
9.195195e-01
8.871333e-01
8.549873e-01
8.232830e-01
7.921991e-01
7.618885e-01
7.324776e-01
7.040662e-01
6.767292e-01
6.505188e-01
6.254675e-01
6.015907e-01
5.788903e-01
5.573569e-01
5.369725e-01
5.177131e-01
4.995500e-01
4.824519e-01
4.663860e-01
4.513191e-01
4.372182e-01
4.240515e-01
4.117888e-01
4.004015e-01
3.898634e-01
3.801504e-01
3.712411e-01
3.631162e-01
3.557595e-01
3.491570e-01
3.432975e-01
3.381723e-01
3.337755e-01
3.301037e-01
3.271563e-01
3.249352e-01
3.234452e-01
3.226939e-01
9.849728e-01
9.544894e-01
9.237773e-01
8.930372e-01
8.624611e-01
8.322278e-01
8.024985e-01
7.734142e-01
7.450944e-01
7.176370e-01
6.911191e-01
6.655981e-01
6.411142e-01
6.176924e-01
5.953447e-01
5.740724e-01
5.538686e-01
5.347194e-01
5.166063e-01
4.995072e-01
4.833979e-01
4.682530e-01
4.540465e-01
4.407529e-01
4.283476e-01
4.168070e-01
4.061093e-01
3.962342e-01
3.871636e-01
3.788815e-01
3.713739e-01
3.646293e-01
3.586384e-01
3.533943e-01
3.488926e-01
3.451311e-01
3.421102e-01
3.398331e-01
3.383051e-01
3.375345e-01
9.857325e-01
9.567821e-01
9.275905e-01
8.983331e-01
8.691793e-01
8.402884e-01
8.118060e-01
7.838619e-01
7.565687e-01
7.300210e-01
7.042962e-01
6.794548e-01
6.555423e-01
6.325907e-01
6.106198e-01
5.896399e-01
5.696527e-01
5.506533e-01
5.326318e-01
5.155743e-01
4.994641e-01
4.842829e-01
4.700113e-01
4.566297e-01
4.441186e-01
4.324595e-01
4.216345e-01
4.116273e-01
4.024231e-01
3.940088e-01
3.863732e-01
3.795069e-01
3.734026e-01
3.680553e-01
3.634620e-01
3.596220e-01
3.565367e-01
3.542102e-01
3.526488e-01
3.518612e-01
9.864140e-01
9.588398e-01
9.310161e-01
9.030974e-01
8.752340e-01
8.475685e-01
8.202329e-01
7.933467e-01
7.670155e-01
7.413300e-01
7.163666e-01
6.921875e-01
6.688415e-01
6.463657e-01
6.247861e-01
6.041198e-01
5.843759e-01
5.655568e-01
5.476599e-01
5.306786e-01
5.146029e-01
4.994208e-01
4.851190e-01
4.716831e-01
4.590989e-01
4.473519e-01
4.364287e-01
4.263166e-01
4.170039e-01
4.084805e-01
4.007377e-01
3.937686e-01
3.875677e-01
3.821319e-01
3.774596e-01
3.735515e-01
3.704103e-01
3.680408e-01
3.664501e-01
3.656476e-01
9.870269e-01
9.606912e-01
9.341009e-01
9.073930e-01
8.807015e-01
8.541549e-01
8.278731e-01
8.019664e-01
7.765333e-01
7.516609e-01
7.274235e-01
7.038837e-01
6.810925e-01
6.590905e-01
6.379085e-01
6.175688e-01
5.980864e-01
5.794702e-01
5.617236e-01
5.448461e-01
5.288338e-01
5.136804e-01
4.993778e-01
4.859167e-01
4.732874e-01
4.614798e-01
4.504841e-01
4.402912e-01
4.308926e-01
4.222810e-01
4.144502e-01
4.073954e-01
4.011134e-01
3.956025e-01
3.908629e-01
3.868965e-01
3.837070e-01
3.813004e-01
3.796845e-01
3.788692e-01
9.875792e-01
9.623602e-01
9.368837e-01
9.112719e-01
8.856455e-01
8.601202e-01
8.348059e-01
8.098040e-01
7.852072e-01
7.610979e-01
7.375484e-01
7.146209e-01
6.923675e-01
6.708312e-01
6.500462e-01
6.300392e-01
6.108299e-01
5.924321e-01
5.748547e-01
5.581025e-01
5.421766e-01
5.270759e-01
5.127970e-01
4.993353e-01
4.866850e-01
4.748401e-01
4.637945e-01
4.535422e-01
4.440778e-01
4.353966e-01
4.274949e-01
4.203702e-01
4.140209e-01
4.084474e-01
4.036511e-01
3.996353e-01
3.964049e-01
3.939666e-01
3.923290e-01
3.915027e-01
9.880775e-01
9.638664e-01
9.393965e-01
9.147778e-01
8.901191e-01
8.655258e-01
8.410984e-01
8.169309e-01
7.931100e-01
7.697140e-01
7.468129e-01
7.244676e-01
7.027309e-01
6.816472e-01
6.612534e-01
6.415792e-01
6.226483e-01
6.044787e-01
5.870837e-01
5.704724e-01
5.546508e-01
5.396219e-01
5.253866e-01
5.119444e-01
4.992935e-01
4.874314e-01
4.763552e-01
4.660621e-01
4.565495e-01
4.478153e-01
4.398580e-01
4.326772e-01
4.262734e-01
4.206483e-01
4.158050e-01
4.117480e-01
4.084831e-01
4.060182e-01
4.043623e-01
4.035267e-01
9.885272e-01
9.652261e-01
9.416662e-01
9.179470e-01
8.941673e-01
8.704234e-01
8.468078e-01
8.234077e-01
8.003045e-01
7.775725e-01
7.552790e-01
7.334839e-01
7.122397e-01
6.915917e-01
6.715786e-01
6.522327e-01
6.335806e-01
6.156437e-01
5.984390e-01
5.819796e-01
5.662751e-01
5.513325e-01
5.371566e-01
5.237504e-01
5.111155e-01
4.992528e-01
4.881625e-01
4.778445e-01
4.682990e-01
4.595261e-01
4.515267e-01
4.443023e-01
4.378551e-01
4.321884e-01
4.273068e-01
4.232158e-01
4.199225e-01
4.174353e-01
4.157642e-01
4.149208e-01
9.889330e-01
9.664531e-01
9.437152e-01
9.208100e-01
8.978277e-01
8.748567e-01
8.519825e-01
8.292863e-01
8.068445e-01
7.847279e-01
7.630011e-01
7.417226e-01
7.209442e-01
7.007119e-01
6.810655e-01
6.620392e-01
6.436619e-01
6.259578e-01
6.089471e-01
5.926459e-01
5.770673e-01
5.622216e-01
5.481169e-01
5.347594e-01
5.221539e-01
5.103043e-01
4.992135e-01
4.888841e-01
4.793185e-01
4.705194e-01
4.624895e-01
4.552322e-01
4.487514e-01
4.430520e-01
4.381397e-01
4.340213e-01
4.307048e-01
4.281994e-01
4.265158e-01
4.256660e-01
9.892985e-01
9.675588e-01
9.455625e-01
9.233927e-01
9.011323e-01
8.788629e-01
8.566638e-01
8.346110e-01
8.127765e-01
7.912275e-01
7.700263e-01
7.492296e-01
7.288887e-01
7.090496e-01
6.897529e-01
6.710340e-01
6.529240e-01
6.354491e-01
6.186320e-01
6.024915e-01
5.870438e-01
5.723018e-01
5.582767e-01
5.449775e-01
5.324117e-01
5.205859e-01
5.095056e-01
4.991757e-01
4.896010e-01
4.807861e-01
4.727356e-01
4.654547e-01
4.589488e-01
4.532243e-01
4.482881e-01
4.441480e-01
4.408129e-01
4.382929e-01
4.365992e-01
4.357441e-01
9.896271e-01
9.685529e-01
9.472239e-01
9.257168e-01
9.041080e-01
8.824734e-01
8.608869e-01
8.394198e-01
8.181401e-01
7.971119e-01
7.763951e-01
7.560449e-01
7.361117e-01
7.166413e-01
6.976748e-01
6.792486e-01
6.613951e-01
6.441424e-01
6.275153e-01
6.115348e-01
5.962194e-01
5.815849e-01
5.676445e-01
5.544101e-01
5.418916e-01
5.300978e-01
5.190365e-01
5.087150e-01
4.991399e-01
4.903177e-01
4.822549e-01
4.749582e-01
4.684345e-01
4.626915e-01
4.577370e-01
4.535802e-01
4.502307e-01
4.476991e-01
4.459973e-01
4.451382e-01
9.899214e-01
9.694434e-01
9.487127e-01
9.278003e-01
9.067774e-01
8.857146e-01
8.646813e-01
8.437446e-01
8.229690e-01
8.024158e-01
7.821426e-01
7.622030e-01
7.426467e-01
7.235189e-01
7.048611e-01
6.867103e-01
6.691000e-01
6.520599e-01
6.356161e-01
6.197918e-01
6.046075e-01
5.900810e-01
5.762279e-01
5.630620e-01
5.505956e-01
5.388396e-01
5.278038e-01
5.174973e-01
5.079287e-01
4.991062e-01
4.910378e-01
4.837317e-01
4.771963e-01
4.714401e-01
4.664724e-01
4.623031e-01
4.589425e-01
4.564021e-01
4.546941e-01
4.538317e-01
9.901837e-01
9.702372e-01
9.500401e-01
9.296587e-01
9.091596e-01
8.886090e-01
8.680721e-01
8.476127e-01
8.272920e-01
8.071688e-01
7.872985e-01
7.677334e-01
7.485222e-01
7.297098e-01
7.113375e-01
6.934429e-01
6.760603e-01
6.592204e-01
6.429509e-01
6.272765e-01
6.122193e-01
5.977989e-01
5.840329e-01
5.709370e-01
5.585254e-01
5.468107e-01
5.358046e-01
5.255180e-01
5.159610e-01
5.071435e-01
4.990749e-01
4.917646e-01
4.852222e-01
4.794575e-01
4.744806e-01
4.703022e-01
4.669335e-01
4.643865e-01
4.626737e-01
4.618089e-01
9.904158e-01
9.709398e-01
9.512154e-01
9.313047e-01
9.112704e-01
8.911750e-01
8.710803e-01
8.510468e-01
8.311331e-01
8.113956e-01
7.918879e-01
7.726610e-01
7.537626e-01
7.352371e-01
7.171257e-01
6.994665e-01
6.822941e-01
6.656403e-01
6.495337e-01
6.340004e-01
6.190640e-01
6.047457e-01
5.910645e-01
5.780378e-01
5.656814e-01
5.540096e-01
5.430357e-01
5.327721e-01
5.232303e-01
5.144216e-01
5.063566e-01
4.990461e-01
4.925007e-01
4.867311e-01
4.817483e-01
4.775637e-01
4.741893e-01
4.716374e-01
4.699213e-01
4.690546e-01
9.906194e-01
9.715559e-01
9.522461e-01
9.327487e-01
9.131230e-01
8.934282e-01
8.737233e-01
8.540659e-01
8.345123e-01
8.151169e-01
7.959318e-01
7.770065e-01
7.583879e-01
7.401201e-01
7.222439e-01
7.047977e-01
6.878164e-01
6.713325e-01
6.553757e-01
6.399730e-01
6.251491e-01
6.109266e-01
5.973259e-01
5.843657e-01
5.720632e-01
5.604341e-01
5.494932e-01
5.392541e-01
5.297296e-01
5.209322e-01
5.128737e-01
5.055659e-01
4.990202e-01
4.932485e-01
4.882623e-01
4.840739e-01
4.806956e-01
4.781405e-01
4.764219e-01
4.755540e-01
9.907955e-01
9.720892e-01
9.531385e-01
9.339992e-01
9.147279e-01
8.953810e-01
8.760149e-01
8.566851e-01
8.374458e-01
8.183495e-01
7.994470e-01
7.807866e-01
7.624146e-01
7.443743e-01
7.267066e-01
7.094497e-01
6.926391e-01
6.763076e-01
6.604857e-01
6.452012e-01
6.304798e-01
6.163451e-01
6.028188e-01
5.899206e-01
5.776691e-01
5.660810e-01
5.551724e-01
5.449578e-01
5.354515e-01
5.266667e-01
5.186164e-01
5.113131e-01
5.047693e-01
4.989974e-01
4.940098e-01
4.898192e-01
4.864386e-01
4.838813e-01
4.821611e-01
4.812923e-01
9.909454e-01
9.725427e-01
9.538975e-01
9.350631e-01
9.160936e-01
8.970433e-01
8.779665e-01
8.589166e-01
8.399463e-01
8.211065e-01
8.024468e-01
7.840145e-01
7.658552e-01
7.480118e-01
7.305249e-01
7.134327e-01
6.967710e-01
6.805730e-01
6.648696e-01
6.496895e-01
6.350590e-01
6.210027e-01
6.075431e-01
5.947012e-01
5.824961e-01
5.709459e-01
5.600675e-01
5.498765e-01
5.403879e-01
5.316160e-01
5.235745e-01
5.162768e-01
5.097361e-01
5.039654e-01
4.989777e-01
4.947863e-01
4.914044e-01
4.888458e-01
4.871247e-01
4.862553e-01
9.910695e-01
9.729188e-01
9.545269e-01
9.359454e-01
9.172264e-01
8.984226e-01
8.795863e-01
8.607696e-01
8.420234e-01
8.233978e-01
8.049410e-01
7.866998e-01
7.687190e-01
7.510410e-01
7.337065e-01
7.167535e-01
7.002179e-01
6.841332e-01
6.685309e-01
6.534399e-01
6.388875e-01
6.248988e-01
6.114971e-01
5.987041e-01
5.865398e-01
5.750232e-01
5.641718e-01
5.540021e-01
5.445300e-01
5.357703e-01
5.277376e-01
5.204458e-01
5.139087e-01
5.081400e-01
5.031530e-01
4.989615e-01
4.955791e-01
4.930199e-01
4.912981e-01
4.904285e-01
9.911687e-01
9.732189e-01
9.550292e-01
9.366497e-01
9.181309e-01
8.995241e-01
8.808803e-01
8.622502e-01
8.436838e-01
8.252299e-01
8.069363e-01
7.888488e-01
7.710118e-01
7.534675e-01
7.362561e-01
7.194158e-01
7.029826e-01
6.869901e-01
6.714702e-01
6.564522e-01
6.419639e-01
6.280308e-01
6.146769e-01
6.019245e-01
5.897944e-01
5.783059e-01
5.674774e-01
5.573260e-01
5.478681e-01
5.391192e-01
5.310944e-01
5.238081e-01
5.172747e-01
5.115081e-01
5.065223e-01
5.023311e-01
4.989487e-01
4.963893e-01
4.946673e-01
4.937974e-01
9.912430e-01
9.734440e-01
9.554061e-01
9.371782e-01
9.188098e-01
9.003510e-01
8.818519e-01
8.633621e-01
8.449310e-01
8.266066e-01
8.084360e-01
7.904646e-01
7.727363e-01
7.552930e-01
7.381750e-01
7.214203e-01
7.050649e-01
6.891427e-01
6.736856e-01
6.587234e-01
6.442841e-01
6.303938e-01
6.170768e-01
6.043558e-01
5.922521e-01
5.807857e-01
5.699751e-01
5.598381e-01
5.503916e-01
5.416514e-01
5.336331e-01
5.263515e-01
5.198212e-01
5.140566e-01
5.090720e-01
5.048814e-01
5.014992e-01
4.989397e-01
4.972176e-01
4.963477e-01
9.912928e-01
9.735946e-01
9.556583e-01
9.375318e-01
9.192640e-01
9.009043e-01
8.825021e-01
8.641065e-01
8.457661e-01
8.275285e-01
8.094405e-01
7.915470e-01
7.738918e-01