# vtk DataFile Version 3.0
16.TVD_MUSCL_Pe = infintie,Grid 81x81,1000000.vtk
ASCII
DATASET STRUCTURED_GRID
DIMENSIONS 81 81 1
POINTS 6561 double
0.000000e+00 0.000000e+00 0.0
1.250000e-02 0.000000e+00 0.0
2.500000e-02 0.000000e+00 0.0
3.750000e-02 0.000000e+00 0.0
5.000000e-02 0.000000e+00 0.0
6.250000e-02 0.000000e+00 0.0
7.500000e-02 0.000000e+00 0.0
8.750000e-02 0.000000e+00 0.0
1.000000e-01 0.000000e+00 0.0
1.125000e-01 0.000000e+00 0.0
1.250000e-01 0.000000e+00 0.0
1.375000e-01 0.000000e+00 0.0
1.500000e-01 0.000000e+00 0.0
1.625000e-01 0.000000e+00 0.0
1.750000e-01 0.000000e+00 0.0
1.875000e-01 0.000000e+00 0.0
2.000000e-01 0.000000e+00 0.0
2.125000e-01 0.000000e+00 0.0
2.250000e-01 0.000000e+00 0.0
2.375000e-01 0.000000e+00 0.0
2.500000e-01 0.000000e+00 0.0
2.625000e-01 0.000000e+00 0.0
2.750000e-01 0.000000e+00 0.0
2.875000e-01 0.000000e+00 0.0
3.000000e-01 0.000000e+00 0.0
3.125000e-01 0.000000e+00 0.0
3.250000e-01 0.000000e+00 0.0
3.375000e-01 0.000000e+00 0.0
3.500000e-01 0.000000e+00 0.0
3.625000e-01 0.000000e+00 0.0
3.750000e-01 0.000000e+00 0.0
3.875000e-01 0.000000e+00 0.0
4.000000e-01 0.000000e+00 0.0
4.125000e-01 0.000000e+00 0.0
4.250000e-01 0.000000e+00 0.0
4.375000e-01 0.000000e+00 0.0
4.500000e-01 0.000000e+00 0.0
4.625000e-01 0.000000e+00 0.0
4.750000e-01 0.000000e+00 0.0
4.875000e-01 0.000000e+00 0.0
5.000000e-01 0.000000e+00 0.0
5.125000e-01 0.000000e+00 0.0
5.250000e-01 0.000000e+00 0.0
5.375000e-01 0.000000e+00 0.0
5.500000e-01 0.000000e+00 0.0
5.625000e-01 0.000000e+00 0.0
5.750000e-01 0.000000e+00 0.0
5.875000e-01 0.000000e+00 0.0
6.000000e-01 0.000000e+00 0.0
6.125000e-01 0.000000e+00 0.0
6.250000e-01 0.000000e+00 0.0
6.375000e-01 0.000000e+00 0.0
6.500000e-01 0.000000e+00 0.0
6.625000e-01 0.000000e+00 0.0
6.750000e-01 0.000000e+00 0.0
6.875000e-01 0.000000e+00 0.0
7.000000e-01 0.000000e+00 0.0
7.125000e-01 0.000000e+00 0.0
7.250000e-01 0.000000e+00 0.0
7.375000e-01 0.000000e+00 0.0
7.500000e-01 0.000000e+00 0.0
7.625000e-01 0.000000e+00 0.0
7.750000e-01 0.000000e+00 0.0
7.875000e-01 0.000000e+00 0.0
8.000000e-01 0.000000e+00 0.0
8.125000e-01 0.000000e+00 0.0
8.250000e-01 0.000000e+00 0.0
8.375000e-01 0.000000e+00 0.0
8.500000e-01 0.000000e+00 0.0
8.625000e-01 0.000000e+00 0.0
8.750000e-01 0.000000e+00 0.0
8.875000e-01 0.000000e+00 0.0
9.000000e-01 0.000000e+00 0.0
9.125000e-01 0.000000e+00 0.0
9.250000e-01 0.000000e+00 0.0
9.375000e-01 0.000000e+00 0.0
9.500000e-01 0.000000e+00 0.0
9.625000e-01 0.000000e+00 0.0
9.750000e-01 0.000000e+00 0.0
9.875000e-01 0.000000e+00 0.0
1.000000e+00 0.000000e+00 0.0
0.000000e+00 1.250000e-02 0.0
1.250000e-02 1.250000e-02 0.0
2.500000e-02 1.250000e-02 0.0
3.750000e-02 1.250000e-02 0.0
5.000000e-02 1.250000e-02 0.0
6.250000e-02 1.250000e-02 0.0
7.500000e-02 1.250000e-02 0.0
8.750000e-02 1.250000e-02 0.0
1.000000e-01 1.250000e-02 0.0
1.125000e-01 1.250000e-02 0.0
1.250000e-01 1.250000e-02 0.0
1.375000e-01 1.250000e-02 0.0
1.500000e-01 1.250000e-02 0.0
1.625000e-01 1.250000e-02 0.0
1.750000e-01 1.250000e-02 0.0
1.875000e-01 1.250000e-02 0.0
2.000000e-01 1.250000e-02 0.0
2.125000e-01 1.250000e-02 0.0
2.250000e-01 1.250000e-02 0.0
2.375000e-01 1.250000e-02 0.0
2.500000e-01 1.250000e-02 0.0
2.625000e-01 1.250000e-02 0.0
2.750000e-01 1.250000e-02 0.0
2.875000e-01 1.250000e-02 0.0
3.000000e-01 1.250000e-02 0.0
3.125000e-01 1.250000e-02 0.0
3.250000e-01 1.250000e-02 0.0
3.375000e-01 1.250000e-02 0.0
3.500000e-01 1.250000e-02 0.0
3.625000e-01 1.250000e-02 0.0
3.750000e-01 1.250000e-02 0.0
3.875000e-01 1.250000e-02 0.0
4.000000e-01 1.250000e-02 0.0
4.125000e-01 1.250000e-02 0.0
4.250000e-01 1.250000e-02 0.0
4.375000e-01 1.250000e-02 0.0
4.500000e-01 1.250000e-02 0.0
4.625000e-01 1.250000e-02 0.0
4.750000e-01 1.250000e-02 0.0
4.875000e-01 1.250000e-02 0.0
5.000000e-01 1.250000e-02 0.0
5.125000e-01 1.250000e-02 0.0
5.250000e-01 1.250000e-02 0.0
5.375000e-01 1.250000e-02 0.0
5.500000e-01 1.250000e-02 0.0
5.625000e-01 1.250000e-02 0.0
5.750000e-01 1.250000e-02 0.0
5.875000e-01 1.250000e-02 0.0
6.000000e-01 1.250000e-02 0.0
6.125000e-01 1.250000e-02 0.0
6.250000e-01 1.250000e-02 0.0
6.375000e-01 1.250000e-02 0.0
6.500000e-01 1.250000e-02 0.0
6.625000e-01 1.250000e-02 0.0
6.750000e-01 1.250000e-02 0.0
6.875000e-01 1.250000e-02 0.0
7.000000e-01 1.250000e-02 0.0
7.125000e-01 1.250000e-02 0.0
7.250000e-01 1.250000e-02 0.0
7.375000e-01 1.250000e-02 0.0
7.500000e-01 1.250000e-02 0.0
7.625000e-01 1.250000e-02 0.0
7.750000e-01 1.250000e-02 0.0
7.875000e-01 1.250000e-02 0.0
8.000000e-01 1.250000e-02 0.0
8.125000e-01 1.250000e-02 0.0
8.250000e-01 1.250000e-02 0.0
8.375000e-01 1.250000e-02 0.0
8.500000e-01 1.250000e-02 0.0
8.625000e-01 1.250000e-02 0.0
8.750000e-01 1.250000e-02 0.0
8.875000e-01 1.250000e-02 0.0
9.000000e-01 1.250000e-02 0.0
9.125000e-01 1.250000e-02 0.0
9.250000e-01 1.250000e-02 0.0
9.375000e-01 1.250000e-02 0.0
9.500000e-01 1.250000e-02 0.0
9.625000e-01 1.250000e-02 0.0
9.750000e-01 1.250000e-02 0.0
9.875000e-01 1.250000e-02 0.0
1.000000e+00 1.250000e-02 0.0
0.000000e+00 2.500000e-02 0.0
1.250000e-02 2.500000e-02 0.0
2.500000e-02 2.500000e-02 0.0
3.750000e-02 2.500000e-02 0.0
5.000000e-02 2.500000e-02 0.0
6.250000e-02 2.500000e-02 0.0
7.500000e-02 2.500000e-02 0.0
8.750000e-02 2.500000e-02 0.0
1.000000e-01 2.500000e-02 0.0
1.125000e-01 2.500000e-02 0.0
1.250000e-01 2.500000e-02 0.0
1.375000e-01 2.500000e-02 0.0
1.500000e-01 2.500000e-02 0.0
1.625000e-01 2.500000e-02 0.0
1.750000e-01 2.500000e-02 0.0
1.875000e-01 2.500000e-02 0.0
2.000000e-01 2.500000e-02 0.0
2.125000e-01 2.500000e-02 0.0
2.250000e-01 2.500000e-02 0.0
2.375000e-01 2.500000e-02 0.0
2.500000e-01 2.500000e-02 0.0
2.625000e-01 2.500000e-02 0.0
2.750000e-01 2.500000e-02 0.0
2.875000e-01 2.500000e-02 0.0
3.000000e-01 2.500000e-02 0.0
3.125000e-01 2.500000e-02 0.0
3.250000e-01 2.500000e-02 0.0
3.375000e-01 2.500000e-02 0.0
3.500000e-01 2.500000e-02 0.0
3.625000e-01 2.500000e-02 0.0
3.750000e-01 2.500000e-02 0.0
3.875000e-01 2.500000e-02 0.0
4.000000e-01 2.500000e-02 0.0
4.125000e-01 2.500000e-02 0.0
4.250000e-01 2.500000e-02 0.0
4.375000e-01 2.500000e-02 0.0
4.500000e-01 2.500000e-02 0.0
4.625000e-01 2.500000e-02 0.0
4.750000e-01 2.500000e-02 0.0
4.875000e-01 2.500000e-02 0.0
5.000000e-01 2.500000e-02 0.0
5.125000e-01 2.500000e-02 0.0
5.250000e-01 2.500000e-02 0.0
5.375000e-01 2.500000e-02 0.0
5.500000e-01 2.500000e-02 0.0
5.625000e-01 2.500000e-02 0.0
5.750000e-01 2.500000e-02 0.0
5.875000e-01 2.500000e-02 0.0
6.000000e-01 2.500000e-02 0.0
6.125000e-01 2.500000e-02 0.0
6.250000e-01 2.500000e-02 0.0
6.375000e-01 2.500000e-02 0.0
6.500000e-01 2.500000e-02 0.0
6.625000e-01 2.500000e-02 0.0
6.750000e-01 2.500000e-02 0.0
6.875000e-01 2.500000e-02 0.0
7.000000e-01 2.500000e-02 0.0
7.125000e-01 2.500000e-02 0.0
7.250000e-01 2.500000e-02 0.0
7.375000e-01 2.500000e-02 0.0
7.500000e-01 2.500000e-02 0.0
7.625000e-01 2.500000e-02 0.0
7.750000e-01 2.500000e-02 0.0
7.875000e-01 2.500000e-02 0.0
8.000000e-01 2.500000e-02 0.0
8.125000e-01 2.500000e-02 0.0
8.250000e-01 2.500000e-02 0.0
8.375000e-01 2.500000e-02 0.0
8.500000e-01 2.500000e-02 0.0
8.625000e-01 2.500000e-02 0.0
8.750000e-01 2.500000e-02 0.0
8.875000e-01 2.500000e-02 0.0
9.000000e-01 2.500000e-02 0.0
9.125000e-01 2.500000e-02 0.0
9.250000e-01 2.500000e-02 0.0
9.375000e-01 2.500000e-02 0.0
9.500000e-01 2.500000e-02 0.0
9.625000e-01 2.500000e-02 0.0
9.750000e-01 2.500000e-02 0.0
9.875000e-01 2.500000e-02 0.0
1.000000e+00 2.500000e-02 0.0
0.000000e+00 3.750000e-02 0.0
1.250000e-02 3.750000e-02 0.0
2.500000e-02 3.750000e-02 0.0
3.750000e-02 3.750000e-02 0.0
5.000000e-02 3.750000e-02 0.0
6.250000e-02 3.750000e-02 0.0
7.500000e-02 3.750000e-02 0.0
8.750000e-02 3.750000e-02 0.0
1.000000e-01 3.750000e-02 0.0
1.125000e-01 3.750000e-02 0.0
1.250000e-01 3.750000e-02 0.0
1.375000e-01 3.750000e-02 0.0
1.500000e-01 3.750000e-02 0.0
1.625000e-01 3.750000e-02 0.0
1.750000e-01 3.750000e-02 0.0
1.875000e-01 3.750000e-02 0.0
2.000000e-01 3.750000e-02 0.0
2.125000e-01 3.750000e-02 0.0
2.250000e-01 3.750000e-02 0.0
2.375000e-01 3.750000e-02 0.0
2.500000e-01 3.750000e-02 0.0
2.625000e-01 3.750000e-02 0.0
2.750000e-01 3.750000e-02 0.0
2.875000e-01 3.750000e-02 0.0
3.000000e-01 3.750000e-02 0.0
3.125000e-01 3.750000e-02 0.0
3.250000e-01 3.750000e-02 0.0
3.375000e-01 3.750000e-02 0.0
3.500000e-01 3.750000e-02 0.0
3.625000e-01 3.750000e-02 0.0
3.750000e-01 3.750000e-02 0.0
3.875000e-01 3.750000e-02 0.0
4.000000e-01 3.750000e-02 0.0
4.125000e-01 3.750000e-02 0.0
4.250000e-01 3.750000e-02 0.0
4.375000e-01 3.750000e-02 0.0
4.500000e-01 3.750000e-02 0.0
4.625000e-01 3.750000e-02 0.0
4.750000e-01 3.750000e-02 0.0
4.875000e-01 3.750000e-02 0.0
5.000000e-01 3.750000e-02 0.0
5.125000e-01 3.750000e-02 0.0
5.250000e-01 3.750000e-02 0.0
5.375000e-01 3.750000e-02 0.0
5.500000e-01 3.750000e-02 0.0
5.625000e-01 3.750000e-02 0.0
5.750000e-01 3.750000e-02 0.0
5.875000e-01 3.750000e-02 0.0
6.000000e-01 3.750000e-02 0.0
6.125000e-01 3.750000e-02 0.0
6.250000e-01 3.750000e-02 0.0
6.375000e-01 3.750000e-02 0.0
6.500000e-01 3.750000e-02 0.0
6.625000e-01 3.750000e-02 0.0
6.750000e-01 3.750000e-02 0.0
6.875000e-01 3.750000e-02 0.0
7.000000e-01 3.750000e-02 0.0
7.125000e-01 3.750000e-02 0.0
7.250000e-01 3.750000e-02 0.0
7.375000e-01 3.750000e-02 0.0
7.500000e-01 3.750000e-02 0.0
7.625000e-01 3.750000e-02 0.0
7.750000e-01 3.750000e-02 0.0
7.875000e-01 3.750000e-02 0.0
8.000000e-01 3.750000e-02 0.0
8.125000e-01 3.750000e-02 0.0
8.250000e-01 3.750000e-02 0.0
8.375000e-01 3.750000e-02 0.0
8.500000e-01 3.750000e-02 0.0
8.625000e-01 3.750000e-02 0.0
8.750000e-01 3.750000e-02 0.0
8.875000e-01 3.750000e-02 0.0
9.000000e-01 3.750000e-02 0.0
9.125000e-01 3.750000e-02 0.0
9.250000e-01 3.750000e-02 0.0
9.375000e-01 3.750000e-02 0.0
9.500000e-01 3.750000e-02 0.0
9.625000e-01 3.750000e-02 0.0
9.750000e-01 3.750000e-02 0.0
9.875000e-01 3.750000e-02 0.0
1.000000e+00 3.750000e-02 0.0
0.000000e+00 5.000000e-02 0.0
1.250000e-02 5.000000e-02 0.0
2.500000e-02 5.000000e-02 0.0
3.750000e-02 5.000000e-02 0.0
[...]
CELL_DATA 6400
SCALARS Temperature double 1
LOOKUP_TABLE default
6.765846e-01
1.904166e-01
2.659549e-02
4.697657e-04
-1.540102e-05
-2.747913e-06
-3.404790e-08
3.903673e-08
1.448800e-08
-9.329008e-11
-2.297983e-10
-9.482830e-11
-4.341068e-11
-2.026046e-11
-9.796584e-12
-5.427932e-12
-3.621708e-12
-2.676713e-12
-2.027750e-12
-1.585232e-12
-6.870204e-13
-3.136904e-14
7.339545e-16
3.615512e-15
2.219818e-15
6.615667e-16
5.612047e-18
-5.571693e-18
-2.953400e-18
-7.948343e-19
-2.183189e-19
-7.388147e-20
-2.728486e-20
-9.789667e-21
-3.307068e-21
-1.053041e-21
-3.361059e-22
-6.271452e-23
-1.831122e-24
1.059918e-25
1.084023e-25
4.564288e-26
2.062993e-26
8.106081e-27
1.580981e-27
6.091605e-29
-4.792439e-29
-2.828368e-29
-9.433666e-30
-3.287161e-30
-1.403038e-30
-6.832178e-31
-3.317288e-31
-1.968962e-31
-1.868149e-31
-2.098997e-31
-3.132791e-31
-3.144072e-31
-2.038716e-31
-1.158237e-31
-6.341614e-32
-3.331593e-32
-1.648982e-32
-7.642471e-33
-3.246947e-33
-1.245053e-33
-2.109727e-34
2.105235e-36
1.310884e-36
8.295312e-37
3.517874e-37
1.355634e-37
4.994192e-38
1.772982e-38
6.048601e-39
1.976883e-39
6.196993e-40
1.874846e-40
5.619225e-41
1.297221e-41
9.564226e-01
6.074136e-01
2.283536e-01
6.098168e-02
5.717871e-03
-1.713973e-04
-2.364191e-05
-6.547156e-06
-1.512609e-07
4.907822e-08
2.507173e-08
9.762557e-09
4.065129e-09
1.738337e-09
7.852742e-10
3.694003e-10
1.712878e-10
7.389341e-11
2.811311e-11
5.898084e-12
-1.603172e-14
-7.620068e-13
-7.066967e-13
-2.141514e-13
9.878691e-16
1.250653e-15
1.423156e-15
7.357130e-16
2.792607e-16
9.822319e-17
3.357402e-17
1.141447e-17
3.851830e-18
1.276608e-18
4.123154e-19
1.350052e-19
2.292896e-20
-2.932166e-22
-8.248120e-23
-4.458849e-23
-1.720606e-23
-6.392485e-24
-2.149068e-24
-5.584947e-25
-9.063158e-26
3.359937e-27
4.626128e-27
2.563348e-27
9.859597e-28
3.793753e-28
1.624430e-28
7.819387e-29
3.896036e-29
1.896037e-29
9.009462e-30
4.193597e-30
1.810055e-30
7.735160e-31
1.711013e-31
-3.088150e-32
-4.832292e-32
-3.070187e-32
-1.886976e-32
-1.084626e-32
-5.474574e-33
-2.436460e-33
-1.151344e-33
-5.014954e-34
-2.163594e-34
-9.290365e-35
-3.752772e-35
-1.416201e-35
-5.025455e-36
-1.690356e-36
-5.430767e-37
-1.679646e-37
-5.044594e-38
-1.485068e-38
-4.391419e-39
-1.011260e-39
1.000192e+00
8.802334e-01
6.281538e-01
2.477798e-01
8.306449e-02
1.652957e-02
-2.055512e-05
-1.075900e-05
-1.200914e-05
-6.620720e-06
-1.991489e-06
-8.451428e-07
-3.554952e-07
-1.372337e-07
-4.953838e-08
-1.750266e-08
-5.474655e-09
-1.173717e-09
4.187693e-13
2.237629e-11
8.962136e-12
1.346296e-12
-6.360733e-13
-7.076377e-13
-5.111815e-13
-2.446613e-13
-1.124968e-13
-4.896490e-14
-2.033190e-14
-8.049269e-15
-3.033202e-15
-1.087901e-15
-3.758312e-16
-1.261994e-16
-3.233999e-17
-2.250856e-18
2.354300e-19
5.562962e-20
2.043379e-20
6.499823e-21
1.976851e-21
5.523830e-22
1.365019e-22
2.846925e-23
4.138701e-24
-2.424187e-25
-4.319731e-25
-1.951720e-25
-7.159931e-26
-2.823205e-26
-1.276224e-26
-6.330754e-27
-3.163550e-27
-1.512703e-27
-6.784519e-28
-2.865716e-28
-8.899760e-29
-1.608308e-30
1.037389e-30
6.217572e-31
3.947070e-31
2.372516e-31
1.214290e-31
5.631316e-32
2.084966e-32
7.138719e-33
3.249710e-33
1.809867e-33
9.662095e-34
4.719652e-34
2.087765e-34
8.537184e-35
3.287524e-35
1.213221e-35
4.365445e-36
1.558757e-36
5.619257e-37
2.069502e-37
8.002223e-38
2.635806e-38
1.000071e+00
9.806810e-01
8.560303e-01
6.193335e-01
2.650485e-01
1.015730e-01
2.781001e-02
2.927120e-03
5.038665e-05
-8.682232e-06
-5.480865e-06
-1.093412e-06
-3.415338e-07
-1.423472e-07
-4.971059e-08
-1.779668e-08
-1.058748e-08
-6.045024e-09
-2.924912e-09
-1.234255e-09
-4.535592e-10
-3.041537e-11
2.780366e-12
1.882704e-12
4.220768e-13
6.978472e-15
3.551122e-15
8.861516e-15
4.766496e-15
3.206047e-15
3.080626e-15
6.158655e-16
-4.084580e-16
-2.057354e-16
-9.914511e-17
-4.675224e-17
-1.620996e-17
-3.740806e-18
-3.964718e-19
-2.955825e-20
-3.395339e-20
-1.520285e-20
-5.071797e-21
-1.349092e-21
-2.555508e-22
1.743352e-24
1.816691e-23
8.982157e-24
3.517841e-24
1.466032e-24
6.623755e-25
3.123302e-25
1.467942e-25
6.678659e-26
2.141948e-26
7.411723e-29
-1.586268e-28
-1.231594e-28
-5.106415e-29
-1.771336e-29
-4.666096e-30
-1.016699e-30
-2.075591e-31
-4.705787e-32
-1.095851e-32
-1.027565e-33
8.307054e-34
1.114187e-33
-2.105916e-33
-6.363839e-34
-8.523538e-36
1.435118e-35
-3.417908e-35
-3.739746e-35
-2.371718e-35
-1.372353e-35
-7.716458e-36
-4.067176e-36
-2.064939e-36
-8.215262e-37
1.000037e+00
9.997493e-01
9.630324e-01
8.343969e-01
6.129688e-01
2.776083e-01
1.165909e-01
3.694886e-02
7.457432e-03
1.803165e-04
-2.509409e-05
-7.729916e-06
-3.892676e-06
-1.447901e-06
-3.643710e-07
-7.628583e-08
-9.714418e-09
-4.642350e-09
-2.885089e-09
-1.233341e-09
-8.931676e-10
-6.368662e-10
-3.146850e-10
-1.598938e-10
-7.911080e-11
-3.786939e-11
-1.769654e-11
-8.134198e-12
-3.794195e-12
-1.378480e-12
-1.451427e-13
1.268213e-14
3.959827e-15
1.679539e-15
3.544591e-16
-4.942719e-17
-2.554657e-17
-1.293570e-17
-6.401065e-18
-1.993277e-18
-4.968953e-19
-1.524336e-19
-3.054331e-20
-5.979228e-21
-1.082879e-21
-7.214363e-23
1.425628e-23
6.925365e-24
1.024968e-24
4.701554e-25
3.397384e-25
1.956473e-25
1.335584e-25
1.196392e-26
1.476314e-26
2.610684e-26
1.373400e-26
5.374906e-27
2.079348e-27
7.928960e-28
3.024539e-28
1.125800e-28
4.146468e-29
1.498454e-29
5.353153e-30
1.970258e-30
7.745970e-31
3.363764e-31
1.579331e-31
7.228504e-32
3.135280e-32
1.258197e-32
4.625240e-33
1.591099e-33
4.886143e-34
1.266507e-34
2.389349e-35
-1.208858e-37
-1.934144e-36
-8.989287e-37
1.000006e+00
1.000056e+00
9.965435e-01
9.493530e-01
8.155259e-01
6.109448e-01
2.904517e-01
1.284923e-01
4.515314e-02
1.137786e-02
1.204638e-03
-2.280608e-05
-5.333121e-06
-3.031050e-06
-1.530488e-06
-6.236267e-07
-2.732487e-07
-1.057032e-07
-4.038355e-08
-9.050798e-09
-1.007589e-09
-6.275356e-10
-1.984062e-10
-1.063856e-10
-5.815703e-11
-2.987560e-11
-1.247908e-11
-7.006297e-12
-3.630519e-12
-2.897010e-12
-1.861926e-12
-7.702136e-13
-1.207837e-13
3.182402e-15
2.278136e-15
1.314532e-15
3.757266e-16
-1.273684e-17
-6.730659e-18
-4.464360e-18
-1.727576e-18
-1.762862e-19
-2.158979e-20
2.653194e-22
1.428742e-21
8.257447e-22
4.111618e-22
2.022172e-22
9.656044e-23
4.431664e-23
2.061566e-23
9.897308e-24
4.408528e-24
1.614898e-24
3.074445e-25
8.756657e-27
7.569574e-27
4.422604e-27
1.290023e-27
7.940414e-28
2.250166e-28
1.155162e-28
3.458014e-29
9.000209e-30
5.023795e-30
1.696784e-30
4.324077e-31
2.641894e-31
1.395202e-31
4.714313e-32
8.029546e-33
3.879717e-33
3.110901e-33
1.519762e-34
-6.725500e-34
-1.424617e-34
-1.144295e-35
-1.485576e-35
-1.356754e-35
-4.539553e-36
1.000000e+00
1.000015e+00
1.000026e+00
9.899925e-01
9.397131e-01
7.874287e-01
6.107337e-01
3.045061e-01
1.414724e-01
5.394008e-02
1.550861e-02
2.673928e-03
2.950762e-05
-4.603466e-06
-3.439900e-06
-1.560102e-06
-3.186999e-07
-1.117914e-07
-5.249343e-08
-3.943788e-08
-2.030442e-08
-9.578814e-09
-4.696817e-09
-2.332995e-09
-1.162040e-09
-5.764296e-10
-2.934732e-10
-1.174705e-10
-1.780004e-11
-1.491407e-12
-1.762923e-12
-1.455473e-12
-9.335055e-13
-4.220574e-13
-8.890419e-14
2.293212e-15
1.172573e-15
8.079957e-16
2.261678e-16
-5.004482e-18
-3.165073e-18
-2.345961e-18
-9.552082e-19
-3.719448e-19
-1.444138e-19
-5.864881e-20
-2.504643e-20
-1.113345e-20
-4.693453e-21
-1.804223e-21
-4.195589e-22
-3.729625e-23
-9.356111e-24
-1.314683e-24
8.714084e-25
9.524555e-25
4.375795e-25
1.582445e-25
5.225529e-26
1.648601e-26
5.161127e-27
1.891985e-27
7.741973e-28
3.367153e-28
1.458336e-28
6.408710e-29
2.740158e-29
1.211253e-29
5.564248e-30
2.639380e-30
1.242749e-30
5.655295e-31
2.434663e-31
1.053027e-31
4.171013e-32
1.565958e-32
6.121001e-33
1.970520e-33
1.278289e-34
-1.397065e-35
1.000000e+00
1.000001e+00
1.000026e+00
9.989153e-01
9.869413e-01
9.216417e-01
7.718841e-01
6.083415e-01
3.156592e-01
1.535945e-01
6.240361e-02
2.002059e-02
4.468017e-03
2.936797e-04
-1.041386e-05
-3.785319e-06
-2.340145e-06
-8.982669e-07
-1.526622e-07
-3.216072e-08
-1.813739e-08
-9.010165e-09
-2.895976e-09
-2.246720e-09
-8.377245e-10
-4.146792e-10
-2.815705e-10
-2.336423e-10
-1.610342e-10
-6.610846e-11
-1.255078e-11
-7.779967e-13
-7.881928e-13
-6.679874e-13
-4.505961e-13
-2.347772e-13
-7.206108e-14
-3.343524e-15
5.156760e-16
4.794487e-16
2.273006e-16
1.003392e-16
4.252436e-17
1.765705e-17
7.332087e-18
3.131123e-18
1.284664e-18
2.809175e-19
4.774381e-22
-3.217857e-21
-1.675438e-21
-4.815162e-22
-8.334472e-24
6.039422e-25
1.201354e-24
-5.839915e-25
-8.303500e-25
-3.765909e-25
-1.004273e-25
-1.920931e-26
-8.137357e-28
1.368130e-27
4.169057e-28
1.752008e-28
1.085501e-28
6.317808e-29
1.156832e-29
5.623267e-30
2.547349e-30
2.173352e-30
6.167525e-31
5.367421e-31
2.206733e-31
7.884736e-32
2.773885e-32
1.335886e-32
2.997556e-33
1.454185e-33
1.769021e-33
9.182429e-34
1.000000e+00
9.999998e-01
1.000012e+00
9.995994e-01
9.993692e-01
9.793745e-01
9.072608e-01
7.594473e-01
6.055960e-01
3.250282e-01
1.644580e-01
7.059152e-02
2.472362e-02
6.453012e-03
8.533460e-04
1.590804e-05
-2.164544e-06
-1.687095e-06
-1.040317e-06
-5.074311e-07
-2.488425e-07
-1.230546e-07
-6.199550e-08
-3.032532e-08
-1.555769e-08
-6.510514e-09
-1.246891e-09
-2.216349e-10
-1.626550e-10
-1.226068e-10
-8.771363e-11
-3.701334e-11
-7.326057e-12
-4.444135e-13
-4.380450e-13
-3.103373e-13
-2.049317e-13
-1.124628e-13
-4.707700e-14
-1.943004e-14
-8.060681e-15
-3.382188e-15
-1.429693e-15
-6.214467e-16
-2.154297e-16
-2.102684e-17
2.640934e-18
1.344251e-18
6.988022e-19
1.578069e-19
-5.325582e-21
-2.306214e-21
-1.149499e-21
-2.805921e-22
8.749896e-26
3.983472e-25
-5.732176e-25
-2.047283e-25
2.700126e-25
2.386108e-25
1.145704e-25
4.876282e-26
1.967634e-26
7.050874e-27
2.635392e-27
1.067613e-27
4.882024e-28
2.333943e-28
1.139334e-28
5.517677e-29
2.629497e-29
1.250057e-29
5.648287e-30
2.430294e-30
1.027065e-30
4.241919e-31
1.445805e-31
2.293491e-32
4.834226e-34
6.926354e-34
1.000000e+00
9.999999e-01
1.000005e+00
9.998250e-01
9.998340e-01
9.977705e-01
9.717152e-01
8.950829e-01
7.489206e-01
6.029658e-01
3.329603e-01
1.741792e-01
7.850282e-02
2.946345e-02
8.683978e-03
1.619957e-03
8.980693e-06
-2.087981e-06
-9.390226e-07
-1.695378e-07
-2.044314e-07
-8.428866e-08
-2.066924e-08
-1.925374e-08
-1.108150e-08
-1.200874e-08
-8.416485e-09
-3.885742e-09
-1.011639e-09
-1.363853e-10
-8.139720e-11
-6.301385e-11
-4.490124e-11
-1.947291e-11
-5.023304e-12
-1.665844e-13
-5.866055e-15
-9.262308e-14
-4.643590e-14
-6.881021e-15
-5.317267e-15
-1.813532e-15
-1.317174e-15
-4.937369e-16
-4.593223e-16
-2.901127e-16
-1.127617e-16
-1.438110e-17
1.057008e-18
7.979545e-19
4.438674e-19
1.189993e-19
-1.114716e-21
-8.336841e-22
-5.748965e-22
-3.746494e-23
1.016671e-23
3.067942e-24
-8.994485e-24
-8.272823e-24
-3.049854e-24
-9.587977e-25
-2.658338e-25
-6.428631e-26
-1.263347e-26
-1.449996e-27
2.818294e-28
2.301090e-28
2.769076e-29
4.145457e-29
2.607685e-29
8.521217e-30
4.367141e-30
2.048236e-30
6.168645e-31
3.468264e-31
2.748990e-31
1.536121e-31
6.769801e-32
2.535131e-32
1.000000e+00
1.000000e+00
1.000002e+00
9.999334e-01
9.998841e-01
9.999407e-01
9.950526e-01
9.642479e-01
8.843712e-01
7.399347e-01
6.006220e-01
3.398288e-01
1.830778e-01
8.612150e-02
3.405840e-02
1.115487e-02
2.654004e-03
4.537195e-05
-6.985839e-05
-1.246580e-05
-8.144823e-06
-3.722001e-06
-1.613724e-06
-6.183406e-07
-1.203583e-07
-5.443518e-09
-5.464625e-09
-5.903651e-09
-4.755939e-09
-2.297240e-09
-6.126622e-10
-5.292774e-11
-4.086424e-11
-3.236569e-11
-2.225907e-11
-1.177930e-11
-5.493514e-12
-2.411566e-12
-1.051711e-12
-4.624706e-13
-2.065371e-13
-9.255202e-14
-3.438315e-14
-4.521020e-15
-2.411996e-16
-2.846530e-16
-2.304532e-16
-1.404795e-16
-5.879712e-17
-1.004568e-17
6.062010e-19
4.113823e-19
2.707726e-19
6.422404e-20
-9.843365e-22
-7.684802e-22
-5.393984e-22
-3.916330e-22
-1.293940e-22
4.566173e-23
1.144399e-22
4.823242e-23
1.345572e-23
3.387055e-24
7.941690e-25
1.786662e-25
4.038514e-26
9.856190e-27
2.949732e-27
1.064037e-27
4.470364e-28
2.007112e-28
8.888794e-29
3.581420e-29
1.282273e-29
2.668502e-30
3.044164e-31
8.133267e-32
5.153804e-32
2.145601e-32
1.000000e+00
1.000000e+00
1.000001e+00
9.999907e-01
9.999204e-01
9.999180e-01
9.998426e-01
9.916144e-01
9.568353e-01
8.745872e-01
7.320390e-01
5.984219e-01
3.460692e-01
1.911257e-01
9.362515e-02
3.836034e-02
1.369702e-02
4.290880e-03
1.714192e-03
7.107948e-04
3.100124e-04
1.103486e-04
5.900006e-06
-8.519270e-07
-7.262266e-07
-3.613383e-07
-1.042025e-07
-5.073101e-09
-3.583693e-09
-3.153563e-09
-2.457314e-09
-1.241842e-09
-3.556951e-10
-3.109892e-11
-1.412162e-11
-9.908901e-12
-5.410568e-12
-1.868052e-12
-9.340854e-13
-2.405156e-13
-1.333145e-13
-8.035165e-14
-6.669270e-14
-4.605993e-14
-1.481092e-14
-1.169403e-15
-1.277108e-16
-1.142693e-16
-1.003171e-16
-6.414441e-17
-2.687806e-17
-4.312542e-18
3.913070e-19
2.494035e-19
1.460225e-19
5.616648e-20
1.944553e-20
7.767499e-21
4.118116e-21
1.637570e-21
3.615285e-22
2.788468e-23
-2.863299e-24
-1.524165e-24
-3.359372e-25
-4.457072e-26
-1.388835e-27
-5.231967e-27
-7.393246e-27
-5.169928e-27
-1.996091e-27
-2.657566e-28
9.955099e-29
6.552725e-29
3.739045e-29
1.932584e-29
8.085623e-30
3.147848e-30
1.325939e-30
3.337672e-31
1.000000e+00
1.000000e+00
1.000000e+00
1.000000e+00
9.999737e-01
9.999310e-01
9.999410e-01
9.993811e-01
9.880593e-01
9.496734e-01
8.655480e-01
7.248529e-01
5.962441e-01
3.518937e-01
1.978944e-01
1.018737e-01
4.194893e-02
1.346455e-02
2.418464e-03
6.612080e-04
3.189166e-04
2.303298e-04
1.581152e-04
4.629237e-05
2.353284e-06
-5.091994e-07
-3.441749e-07
-1.901227e-07
-5.152697e-08
-3.693097e-09
-1.865176e-09
-1.590921e-09
-1.247924e-09
-6.812939e-10
-3.220603e-10
-1.528804e-10
-7.119524e-11
-3.258817e-11
-1.463195e-11
-6.832258e-12
-2.652380e-12
-4.805711e-13
-3.870512e-14
-4.447377e-14
-3.539924e-14
-2.154933e-14
-8.096656e-15
-1.172782e-15
-2.499534e-17
-5.884387e-17
-4.999932e-17
-3.041597e-17
-1.342878e-17
-2.729663e-18
1.027581e-19
1.212294e-19
8.587768e-20
5.147219e-20
2.209014e-20
7.552713e-21
2.163922e-21
5.569877e-22
1.662918e-22
4.705197e-23
1.190225e-23
2.714523e-24
5.629718e-25
9.101010e-26
7.642797e-27
-3.217406e-27
-3.072402e-27
-2.305637e-27
-1.171741e-27
-4.686197e-28
-1.488690e-28
-3.289214e-29
-1.573687e-30
2.378258e-30
1.680650e-30
8.123218e-31
1.000000e+00
1.000000e+00
1.000000e+00
1.000000e+00
9.999989e-01
9.999612e-01
9.999493e-01
9.999757e-01
9.982774e-01
9.843301e-01
9.428481e-01
8.572649e-01
7.183937e-01
5.939684e-01
3.580216e-01
2.014694e-01
1.153723e-01
5.391200e-02
2.049192e-02
5.595496e-03
1.162806e-03
2.435228e-04
1.579279e-04
1.275977e-04
6.766644e-05
1.455535e-05
-6.763773e-08
-2.565531e-07
-2.002918e-07
-9.967716e-08
-2.407527e-08
-1.852305e-09
-1.081456e-09
-6.865284e-10
-3.216906e-10
-1.361797e-10
-6.777524e-11
-2.646333e-11
-1.359306e-11
-6.666033e-12
-5.114960e-12
-3.314390e-12
-1.423413e-12
-2.521052e-13
-2.608108e-14
-1.767590e-14
-1.600139e-14
-1.054191e-14
-4.187766e-15
-6.949998e-16
-4.650509e-17
-2.896708e-17
-2.201143e-17
-1.413806e-17
-7.072948e-18
-1.406625e-18
8.364935e-20
6.561232e-20
8.665760e-21
-1.779202e-20
-1.315708e-20
-4.621959e-21
-1.286126e-21
-3.007394e-22
-6.345437e-23
-1.372350e-23
-3.720065e-24
-1.372156e-24
-5.847175e-25
-1.398775e-25
-4.197688e-27
-1.816761e-27
-1.755913e-28
-6.813082e-29
-6.452713e-29
7.574286e-30
2.765865e-29
1.732446e-29
1.402413e-30
7.926322e-31
1.000000e+00
1.000000e+00
1.000000e+00
1.000000e+00
1.000000e+00
9.999904e-01
9.999607e-01
9.999612e-01
9.999586e-01
9.967251e-01
9.804564e-01
9.362444e-01
8.497546e-01
7.126451e-01
5.912644e-01
3.657670e-01
2.001142e-01
1.101075e-01
5.394179e-02
2.210395e-02
7.356112e-03
1.852307e-03
3.378439e-04
1.293173e-04
1.043374e-04
7.625709e-05
3.153258e-05
5.128871e-06
-9.945555e-08
-1.472565e-07
-1.075651e-07
-3.909555e-08
-7.269116e-09
-2.284056e-09
-2.124205e-09
-1.234988e-09
-6.139623e-10
-2.963512e-10
-1.208455e-10
-2.959432e-11
-4.155763e-12
-3.226375e-12
-2.460199e-12
-1.721769e-12
-6.816489e-13
-1.201497e-13
-1.858777e-14
-1.030387e-14
-8.005958e-15
-5.237691e-15
-2.171181e-15
-4.173136e-16
-1.044297e-17
-1.100420e-17
-1.011370e-17
-6.804922e-18
-2.963779e-18
-4.613220e-19
4.881594e-20
7.387220e-21
-8.782989e-21
-4.524385e-22
-2.159472e-22
8.384214e-22
6.151769e-22
2.733207e-22
7.912700e-23
-1.479237e-24
-7.315178e-25
-5.661448e-25
-2.950093e-25
-1.298760e-25
-5.610410e-26
-2.409469e-26
-9.860544e-27
-1.578947e-27
3.161541e-29
4.727774e-29
3.606310e-29
7.731340e-30
1.000000e+00
1.000000e+00
1.000000e+00
1.000000e+00
1.000000e+00
1.000000e+00
9.999826e-01
9.999656e-01
9.999656e-01
9.998675e-01
9.950451e-01
9.766013e-01
9.295665e-01
8.432303e-01
7.082929e-01
5.824615e-01
3.973965e-01
2.151550e-01
1.169146e-01
5.746370e-02
2.476637e-02
8.985719e-03
2.596325e-03
5.573351e-04
1.168938e-04
7.586032e-05
6.323502e-05
3.692386e-05
1.096196e-05
1.117135e-07
-1.245835e-07
-9.313777e-08
-4.613341e-08
-1.099545e-08
-2.300059e-09
-8.495671e-10
-4.900872e-10
-2.692481e-10
-2.138913e-10
-1.418504e-10
-6.816509e-11
-1.757562e-11
-2.577242e-12
-1.660686e-12
-1.273976e-12
-8.402656e-13
-3.595622e-13
-6.521270e-14
-8.037408e-15
-4.993004e-15
-3.872709e-15
-2.699621e-15
-1.042266e-15
-2.247876e-16
-8.444534e-18
-7.157497e-18
-5.526928e-18
-3.966344e-18
-1.949839e-18
-9.636831e-19
-4.579641e-19
-2.062546e-19
-8.649860e-20
-2.993611e-20
-4.433036e-21
1.707415e-22
2.455082e-22
1.481303e-22
6.417003e-23
2.765634e-23
1.195076e-23
5.325135e-24
1.598238e-24
1.128940e-28
-1.068954e-26
-8.390004e-27
-4.312052e-27
-4.863395e-28
2.714066e-29
3.085685e-29
1.000000e+00
1.000000e+00
1.000000e+00
1.000000e+00
1.000000e+00
1.000000e+00
9.999970e-01
9.999799e-01
9.999703e-01
9.999804e-01
9.994730e-01
9.932397e-01
9.732563e-01
9.211021e-01
8.425083e-01
6.968430e-01
5.477872e-01
4.202342e-01
2.227560e-01
1.222844e-01
6.120759e-02
2.731533e-02
1.054474e-02
3.359289e-03
8.427011e-04
1.679373e-04
6.429290e-05
5.221575e-05
4.017501e-05
1.848831e-05
3.190318e-06
-1.674584e-07
-1.023680e-07
-6.843017e-08
-3.291165e-08
-1.492739e-08
-6.520837e-09
-1.721796e-09
-2.056136e-10
-1.313107e-10
-1.034615e-10
-7.000786e-11
-3.482060e-11
-9.178673e-12
-1.397197e-12
-7.894752e-13
-6.332554e-13
-4.265261e-13
-1.864181e-13
-3.494745e-14
-4.505039e-15
-2.243824e-15
-1.875214e-15
-1.185740e-15
-4.094506e-16
-9.858700e-18
-4.985955e-18
-3.857993e-18
-3.507326e-20
-3.689075e-19
-3.397835e-19
-1.571301e-19
-8.730135e-20
-6.094949e-20
-3.663725e-20
-1.755220e-20
-7.173278e-21
-2.916890e-21
-1.192326e-21
-4.477134e-22
-8.592117e-23
5.288921e-24
4.069690e-24
2.765483e-24
7.465824e-25
9.696966e-27
-4.337332e-27
-4.110201e-27
-1.720038e-27
-2.147934e-28
1.000000e+00
1.000000e+00
1.000000e+00
1.000000e+00
1.000000e+00
1.000000e+00
1.000000e+00
9.999943e-01
9.999777e-01
9.999764e-01
9.999942e-01
9.985815e-01
9.921797e-01
9.695758e-01
9.088607e-01
8.513394e-01
6.734008e-01
5.489912e-01
4.258730e-01
2.303776e-01
1.280379e-01
6.515335e-02
2.989224e-02
1.208125e-02
4.151110e-03
1.161095e-03
2.583958e-04
6.068437e-05
4.019832e-05
3.388106e-05
2.174970e-05
1.063852e-05
4.555875e-06
2.006006e-06
6.044925e-07
-5.571016e-10
-9.829138e-09
-7.259066e-09
-3.623695e-09
-1.054550e-09
-9.429052e-11
-6.225012e-11
-5.160241e-11
-3.509239e-11
-1.780782e-11
-4.657946e-12
-7.038164e-13
-4.182779e-13
-3.351184e-13
-2.246918e-13
-9.330707e-14
-1.982910e-14
-1.990125e-15
-1.627288e-15
-1.183436e-15
-6.923106e-16
-3.055200e-16
-1.352982e-16
-5.989869e-17
-2.683706e-17
-1.256826e-17
-4.734027e-18
-6.765533e-19
-3.637259e-20
-3.022815e-20
-1.426439e-20
-6.077259e-21
9.686362e-22
-8.023007e-22
-7.300573e-22
-4.756862e-22
-2.344081e-22
-4.690544e-23
2.996328e-24
2.202514e-24
1.436183e-24
5.085575e-25
4.749177e-26
-1.744577e-27
-2.105449e-27
1.000000e+00
1.000000e+00
1.000000e+00
1.000000e+00
1.000000e+00
1.000000e+00
1.000000e+00
9.999998e-01
9.999914e-01
9.999798e-01
9.999811e-01
9.999500e-01
9.965984e-01
9.942291e-01
9.546681e-01
9.167704e-01
8.406633e-01
6.656086e-01
5.480211e-01
4.297799e-01
2.373655e-01
1.338077e-01
6.925838e-02
3.254021e-02
1.366120e-02
4.955994e-03
1.506604e-03
3.803874e-04
8.082179e-05
3.257160e-05
2.146480e-05
1.062369e-05
4.220969e-06
1.973191e-06
1.587695e-06
9.387999e-07
3.483139e-07
2.377073e-08