# vtk DataFile Version 3.0
13.TVD_MUSCL scheme
ASCII
DATASET STRUCTURED_GRID
DIMENSIONS 81 81 1
POINTS 6561 double
0.000000e+00 0.000000e+00 0.0
1.250000e-02 0.000000e+00 0.0
2.500000e-02 0.000000e+00 0.0
3.750000e-02 0.000000e+00 0.0
5.000000e-02 0.000000e+00 0.0
6.250000e-02 0.000000e+00 0.0
7.500000e-02 0.000000e+00 0.0
8.750000e-02 0.000000e+00 0.0
1.000000e-01 0.000000e+00 0.0
1.125000e-01 0.000000e+00 0.0
1.250000e-01 0.000000e+00 0.0
1.375000e-01 0.000000e+00 0.0
1.500000e-01 0.000000e+00 0.0
1.625000e-01 0.000000e+00 0.0
1.750000e-01 0.000000e+00 0.0
1.875000e-01 0.000000e+00 0.0
2.000000e-01 0.000000e+00 0.0
2.125000e-01 0.000000e+00 0.0
2.250000e-01 0.000000e+00 0.0
2.375000e-01 0.000000e+00 0.0
2.500000e-01 0.000000e+00 0.0
2.625000e-01 0.000000e+00 0.0
2.750000e-01 0.000000e+00 0.0
2.875000e-01 0.000000e+00 0.0
3.000000e-01 0.000000e+00 0.0
3.125000e-01 0.000000e+00 0.0
3.250000e-01 0.000000e+00 0.0
3.375000e-01 0.000000e+00 0.0
3.500000e-01 0.000000e+00 0.0
3.625000e-01 0.000000e+00 0.0
3.750000e-01 0.000000e+00 0.0
3.875000e-01 0.000000e+00 0.0
4.000000e-01 0.000000e+00 0.0
4.125000e-01 0.000000e+00 0.0
4.250000e-01 0.000000e+00 0.0
4.375000e-01 0.000000e+00 0.0
4.500000e-01 0.000000e+00 0.0
4.625000e-01 0.000000e+00 0.0
4.750000e-01 0.000000e+00 0.0
4.875000e-01 0.000000e+00 0.0
5.000000e-01 0.000000e+00 0.0
5.125000e-01 0.000000e+00 0.0
5.250000e-01 0.000000e+00 0.0
5.375000e-01 0.000000e+00 0.0
5.500000e-01 0.000000e+00 0.0
5.625000e-01 0.000000e+00 0.0
5.750000e-01 0.000000e+00 0.0
5.875000e-01 0.000000e+00 0.0
6.000000e-01 0.000000e+00 0.0
6.125000e-01 0.000000e+00 0.0
6.250000e-01 0.000000e+00 0.0
6.375000e-01 0.000000e+00 0.0
6.500000e-01 0.000000e+00 0.0
6.625000e-01 0.000000e+00 0.0
6.750000e-01 0.000000e+00 0.0
6.875000e-01 0.000000e+00 0.0
7.000000e-01 0.000000e+00 0.0
7.125000e-01 0.000000e+00 0.0
7.250000e-01 0.000000e+00 0.0
7.375000e-01 0.000000e+00 0.0
7.500000e-01 0.000000e+00 0.0
7.625000e-01 0.000000e+00 0.0
7.750000e-01 0.000000e+00 0.0
7.875000e-01 0.000000e+00 0.0
8.000000e-01 0.000000e+00 0.0
8.125000e-01 0.000000e+00 0.0
8.250000e-01 0.000000e+00 0.0
8.375000e-01 0.000000e+00 0.0
8.500000e-01 0.000000e+00 0.0
8.625000e-01 0.000000e+00 0.0
8.750000e-01 0.000000e+00 0.0
8.875000e-01 0.000000e+00 0.0
9.000000e-01 0.000000e+00 0.0
9.125000e-01 0.000000e+00 0.0
9.250000e-01 0.000000e+00 0.0
9.375000e-01 0.000000e+00 0.0
9.500000e-01 0.000000e+00 0.0
9.625000e-01 0.000000e+00 0.0
9.750000e-01 0.000000e+00 0.0
9.875000e-01 0.000000e+00 0.0
1.000000e+00 0.000000e+00 0.0
0.000000e+00 1.250000e-02 0.0
1.250000e-02 1.250000e-02 0.0
2.500000e-02 1.250000e-02 0.0
3.750000e-02 1.250000e-02 0.0
5.000000e-02 1.250000e-02 0.0
6.250000e-02 1.250000e-02 0.0
7.500000e-02 1.250000e-02 0.0
8.750000e-02 1.250000e-02 0.0
1.000000e-01 1.250000e-02 0.0
1.125000e-01 1.250000e-02 0.0
1.250000e-01 1.250000e-02 0.0
1.375000e-01 1.250000e-02 0.0
1.500000e-01 1.250000e-02 0.0
1.625000e-01 1.250000e-02 0.0
1.750000e-01 1.250000e-02 0.0
1.875000e-01 1.250000e-02 0.0
2.000000e-01 1.250000e-02 0.0
2.125000e-01 1.250000e-02 0.0
2.250000e-01 1.250000e-02 0.0
2.375000e-01 1.250000e-02 0.0
2.500000e-01 1.250000e-02 0.0
2.625000e-01 1.250000e-02 0.0
2.750000e-01 1.250000e-02 0.0
2.875000e-01 1.250000e-02 0.0
3.000000e-01 1.250000e-02 0.0
3.125000e-01 1.250000e-02 0.0
3.250000e-01 1.250000e-02 0.0
3.375000e-01 1.250000e-02 0.0
3.500000e-01 1.250000e-02 0.0
3.625000e-01 1.250000e-02 0.0
3.750000e-01 1.250000e-02 0.0
3.875000e-01 1.250000e-02 0.0
4.000000e-01 1.250000e-02 0.0
4.125000e-01 1.250000e-02 0.0
4.250000e-01 1.250000e-02 0.0
4.375000e-01 1.250000e-02 0.0
4.500000e-01 1.250000e-02 0.0
4.625000e-01 1.250000e-02 0.0
4.750000e-01 1.250000e-02 0.0
4.875000e-01 1.250000e-02 0.0
5.000000e-01 1.250000e-02 0.0
5.125000e-01 1.250000e-02 0.0
5.250000e-01 1.250000e-02 0.0
5.375000e-01 1.250000e-02 0.0
5.500000e-01 1.250000e-02 0.0
5.625000e-01 1.250000e-02 0.0
5.750000e-01 1.250000e-02 0.0
5.875000e-01 1.250000e-02 0.0
6.000000e-01 1.250000e-02 0.0
6.125000e-01 1.250000e-02 0.0
6.250000e-01 1.250000e-02 0.0
6.375000e-01 1.250000e-02 0.0
6.500000e-01 1.250000e-02 0.0
6.625000e-01 1.250000e-02 0.0
6.750000e-01 1.250000e-02 0.0
6.875000e-01 1.250000e-02 0.0
7.000000e-01 1.250000e-02 0.0
7.125000e-01 1.250000e-02 0.0
7.250000e-01 1.250000e-02 0.0
7.375000e-01 1.250000e-02 0.0
7.500000e-01 1.250000e-02 0.0
7.625000e-01 1.250000e-02 0.0
7.750000e-01 1.250000e-02 0.0
7.875000e-01 1.250000e-02 0.0
8.000000e-01 1.250000e-02 0.0
8.125000e-01 1.250000e-02 0.0
8.250000e-01 1.250000e-02 0.0
8.375000e-01 1.250000e-02 0.0
8.500000e-01 1.250000e-02 0.0
8.625000e-01 1.250000e-02 0.0
8.750000e-01 1.250000e-02 0.0
8.875000e-01 1.250000e-02 0.0
9.000000e-01 1.250000e-02 0.0
9.125000e-01 1.250000e-02 0.0
9.250000e-01 1.250000e-02 0.0
9.375000e-01 1.250000e-02 0.0
9.500000e-01 1.250000e-02 0.0
9.625000e-01 1.250000e-02 0.0
9.750000e-01 1.250000e-02 0.0
9.875000e-01 1.250000e-02 0.0
1.000000e+00 1.250000e-02 0.0
0.000000e+00 2.500000e-02 0.0
1.250000e-02 2.500000e-02 0.0
2.500000e-02 2.500000e-02 0.0
3.750000e-02 2.500000e-02 0.0
5.000000e-02 2.500000e-02 0.0
6.250000e-02 2.500000e-02 0.0
7.500000e-02 2.500000e-02 0.0
8.750000e-02 2.500000e-02 0.0
1.000000e-01 2.500000e-02 0.0
1.125000e-01 2.500000e-02 0.0
1.250000e-01 2.500000e-02 0.0
1.375000e-01 2.500000e-02 0.0
1.500000e-01 2.500000e-02 0.0
1.625000e-01 2.500000e-02 0.0
1.750000e-01 2.500000e-02 0.0
1.875000e-01 2.500000e-02 0.0
2.000000e-01 2.500000e-02 0.0
2.125000e-01 2.500000e-02 0.0
2.250000e-01 2.500000e-02 0.0
2.375000e-01 2.500000e-02 0.0
2.500000e-01 2.500000e-02 0.0
2.625000e-01 2.500000e-02 0.0
2.750000e-01 2.500000e-02 0.0
2.875000e-01 2.500000e-02 0.0
3.000000e-01 2.500000e-02 0.0
3.125000e-01 2.500000e-02 0.0
3.250000e-01 2.500000e-02 0.0
3.375000e-01 2.500000e-02 0.0
3.500000e-01 2.500000e-02 0.0
3.625000e-01 2.500000e-02 0.0
3.750000e-01 2.500000e-02 0.0
3.875000e-01 2.500000e-02 0.0
4.000000e-01 2.500000e-02 0.0
4.125000e-01 2.500000e-02 0.0
4.250000e-01 2.500000e-02 0.0
4.375000e-01 2.500000e-02 0.0
4.500000e-01 2.500000e-02 0.0
4.625000e-01 2.500000e-02 0.0
4.750000e-01 2.500000e-02 0.0
4.875000e-01 2.500000e-02 0.0
5.000000e-01 2.500000e-02 0.0
5.125000e-01 2.500000e-02 0.0
5.250000e-01 2.500000e-02 0.0
5.375000e-01 2.500000e-02 0.0
5.500000e-01 2.500000e-02 0.0
5.625000e-01 2.500000e-02 0.0
5.750000e-01 2.500000e-02 0.0
5.875000e-01 2.500000e-02 0.0
6.000000e-01 2.500000e-02 0.0
6.125000e-01 2.500000e-02 0.0
6.250000e-01 2.500000e-02 0.0
6.375000e-01 2.500000e-02 0.0
6.500000e-01 2.500000e-02 0.0
6.625000e-01 2.500000e-02 0.0
6.750000e-01 2.500000e-02 0.0
6.875000e-01 2.500000e-02 0.0
7.000000e-01 2.500000e-02 0.0
7.125000e-01 2.500000e-02 0.0
7.250000e-01 2.500000e-02 0.0
7.375000e-01 2.500000e-02 0.0
7.500000e-01 2.500000e-02 0.0
7.625000e-01 2.500000e-02 0.0
7.750000e-01 2.500000e-02 0.0
7.875000e-01 2.500000e-02 0.0
8.000000e-01 2.500000e-02 0.0
8.125000e-01 2.500000e-02 0.0
8.250000e-01 2.500000e-02 0.0
8.375000e-01 2.500000e-02 0.0
8.500000e-01 2.500000e-02 0.0
8.625000e-01 2.500000e-02 0.0
8.750000e-01 2.500000e-02 0.0
8.875000e-01 2.500000e-02 0.0
9.000000e-01 2.500000e-02 0.0
9.125000e-01 2.500000e-02 0.0
9.250000e-01 2.500000e-02 0.0
9.375000e-01 2.500000e-02 0.0
9.500000e-01 2.500000e-02 0.0
9.625000e-01 2.500000e-02 0.0
9.750000e-01 2.500000e-02 0.0
9.875000e-01 2.500000e-02 0.0
1.000000e+00 2.500000e-02 0.0
0.000000e+00 3.750000e-02 0.0
1.250000e-02 3.750000e-02 0.0
2.500000e-02 3.750000e-02 0.0
3.750000e-02 3.750000e-02 0.0
5.000000e-02 3.750000e-02 0.0
6.250000e-02 3.750000e-02 0.0
7.500000e-02 3.750000e-02 0.0
8.750000e-02 3.750000e-02 0.0
1.000000e-01 3.750000e-02 0.0
1.125000e-01 3.750000e-02 0.0
1.250000e-01 3.750000e-02 0.0
1.375000e-01 3.750000e-02 0.0
1.500000e-01 3.750000e-02 0.0
1.625000e-01 3.750000e-02 0.0
1.750000e-01 3.750000e-02 0.0
1.875000e-01 3.750000e-02 0.0
2.000000e-01 3.750000e-02 0.0
2.125000e-01 3.750000e-02 0.0
2.250000e-01 3.750000e-02 0.0
2.375000e-01 3.750000e-02 0.0
2.500000e-01 3.750000e-02 0.0
2.625000e-01 3.750000e-02 0.0
2.750000e-01 3.750000e-02 0.0
2.875000e-01 3.750000e-02 0.0
3.000000e-01 3.750000e-02 0.0
3.125000e-01 3.750000e-02 0.0
3.250000e-01 3.750000e-02 0.0
3.375000e-01 3.750000e-02 0.0
3.500000e-01 3.750000e-02 0.0
3.625000e-01 3.750000e-02 0.0
3.750000e-01 3.750000e-02 0.0
3.875000e-01 3.750000e-02 0.0
4.000000e-01 3.750000e-02 0.0
4.125000e-01 3.750000e-02 0.0
4.250000e-01 3.750000e-02 0.0
4.375000e-01 3.750000e-02 0.0
4.500000e-01 3.750000e-02 0.0
4.625000e-01 3.750000e-02 0.0
4.750000e-01 3.750000e-02 0.0
4.875000e-01 3.750000e-02 0.0
5.000000e-01 3.750000e-02 0.0
5.125000e-01 3.750000e-02 0.0
5.250000e-01 3.750000e-02 0.0
5.375000e-01 3.750000e-02 0.0
5.500000e-01 3.750000e-02 0.0
5.625000e-01 3.750000e-02 0.0
5.750000e-01 3.750000e-02 0.0
5.875000e-01 3.750000e-02 0.0
6.000000e-01 3.750000e-02 0.0
6.125000e-01 3.750000e-02 0.0
6.250000e-01 3.750000e-02 0.0
6.375000e-01 3.750000e-02 0.0
6.500000e-01 3.750000e-02 0.0
6.625000e-01 3.750000e-02 0.0
6.750000e-01 3.750000e-02 0.0
6.875000e-01 3.750000e-02 0.0
7.000000e-01 3.750000e-02 0.0
7.125000e-01 3.750000e-02 0.0
7.250000e-01 3.750000e-02 0.0
7.375000e-01 3.750000e-02 0.0
7.500000e-01 3.750000e-02 0.0
7.625000e-01 3.750000e-02 0.0
7.750000e-01 3.750000e-02 0.0
7.875000e-01 3.750000e-02 0.0
8.000000e-01 3.750000e-02 0.0
8.125000e-01 3.750000e-02 0.0
8.250000e-01 3.750000e-02 0.0
8.375000e-01 3.750000e-02 0.0
8.500000e-01 3.750000e-02 0.0
8.625000e-01 3.750000e-02 0.0
8.750000e-01 3.750000e-02 0.0
8.875000e-01 3.750000e-02 0.0
9.000000e-01 3.750000e-02 0.0
9.125000e-01 3.750000e-02 0.0
9.250000e-01 3.750000e-02 0.0
9.375000e-01 3.750000e-02 0.0
9.500000e-01 3.750000e-02 0.0
9.625000e-01 3.750000e-02 0.0
9.750000e-01 3.750000e-02 0.0
9.875000e-01 3.750000e-02 0.0
1.000000e+00 3.750000e-02 0.0
0.000000e+00 5.000000e-02 0.0
1.250000e-02 5.000000e-02 0.0
2.500000e-02 5.000000e-02 0.0
3.750000e-02 5.000000e-02 0.0
5.000000e-02 5.000000e-02 0.0
[...]
CELL_DATA 6400
SCALARS Temperature double 1
LOOKUP_TABLE default
4.999997e-01
2.260365e-01
1.329767e-01
9.260624e-02
7.100851e-02
5.762251e-02
4.848891e-02
4.184428e-02
3.678708e-02
3.280671e-02
2.959131e-02
2.693923e-02
2.471417e-02
2.282061e-02
2.118959e-02
1.977008e-02
1.852349e-02
1.742009e-02
1.643663e-02
1.555464e-02
1.475927e-02
1.403843e-02
1.338220e-02
1.278237e-02
1.223205e-02
1.172545e-02
1.125764e-02
1.082445e-02
1.042225e-02
1.004794e-02
9.698811e-03
9.372509e-03
9.066968e-03
8.780374e-03
8.511124e-03
8.257796e-03
8.019129e-03
7.793997e-03
7.581394e-03
7.380418e-03
7.190256e-03
7.010178e-03
6.839524e-03
6.677696e-03
6.524154e-03
6.378405e-03
6.240002e-03
6.108539e-03
5.983642e-03
5.864974e-03
5.752223e-03
5.645107e-03
5.543366e-03
5.446762e-03
5.355077e-03
5.268112e-03
5.185684e-03
5.107626e-03
5.033785e-03
4.964021e-03
4.898206e-03
4.836224e-03
4.777969e-03
4.723347e-03
4.672269e-03
4.624659e-03
4.580447e-03
4.539571e-03
4.501979e-03
4.467623e-03
4.436464e-03
4.408467e-03
4.383608e-03
4.361865e-03
4.343225e-03
4.327678e-03
4.315224e-03
4.305866e-03
4.299614e-03
4.296483e-03
7.739617e-01
4.999972e-01
3.481731e-01
2.604457e-01
2.059221e-01
1.695357e-01
1.437653e-01
1.246334e-01
1.098949e-01
9.820354e-02
8.870809e-02
8.084573e-02
7.423014e-02
6.858759e-02
6.371884e-02
5.947550e-02
5.574480e-02
5.243954e-02
4.949123e-02
4.684533e-02
4.445792e-02
4.229319e-02
4.032167e-02
3.851891e-02
3.686441e-02
3.534092e-02
3.393376e-02
3.263040e-02
3.142006e-02
3.029344e-02
2.924245e-02
2.826002e-02
2.733999e-02
2.647689e-02
2.566594e-02
2.490287e-02
2.418390e-02
2.350564e-02
2.286508e-02
2.225950e-02
2.168647e-02
2.114379e-02
2.062949e-02
2.014176e-02
1.967897e-02
1.923966e-02
1.882247e-02
1.842619e-02
1.804968e-02
1.769194e-02
1.735203e-02
1.702909e-02
1.672235e-02
1.643109e-02
1.615465e-02
1.589244e-02
1.564390e-02
1.540854e-02
1.518588e-02
1.497552e-02
1.477706e-02
1.459016e-02
1.441449e-02
1.424977e-02
1.409574e-02
1.395217e-02
1.381884e-02
1.369557e-02
1.358221e-02
1.347860e-02
1.338463e-02
1.330020e-02
1.322523e-02
1.315966e-02
1.310344e-02
1.305655e-02
1.301899e-02
1.299077e-02
1.297192e-02
1.296247e-02
8.670202e-01
6.518175e-01
4.999921e-01
3.958947e-01
3.234684e-01
2.715345e-01
2.330389e-01
2.036057e-01
1.804814e-01
1.618865e-01
1.466361e-01
1.339171e-01
1.231561e-01
1.139387e-01
1.059584e-01
9.898424e-02
9.283896e-02
8.738440e-02
8.251136e-02
7.813245e-02
7.417690e-02
7.058684e-02
6.731449e-02
6.432005e-02
6.157014e-02
5.903653e-02
5.669522e-02
5.452565e-02
5.251012e-02
5.063333e-02
4.888195e-02
4.724437e-02
4.571036e-02
4.427096e-02
4.291822e-02
4.164509e-02
4.044531e-02
3.931328e-02
3.824400e-02
3.723297e-02
3.627616e-02
3.536992e-02
3.451096e-02
3.369629e-02
3.292322e-02
3.218929e-02
3.149227e-02
3.083011e-02
3.020095e-02
2.960311e-02
2.903503e-02
2.849529e-02
2.798259e-02
2.749574e-02
2.703364e-02
2.659530e-02
2.617981e-02
2.578632e-02
2.541406e-02
2.506234e-02
2.473052e-02
2.441800e-02
2.412427e-02
2.384883e-02
2.359127e-02
2.335118e-02
2.312822e-02
2.292208e-02
2.273250e-02
2.255923e-02
2.240208e-02
2.226088e-02
2.213549e-02
2.202583e-02
2.193181e-02
2.185340e-02
2.179058e-02
2.174338e-02
2.171184e-02
2.169605e-02
9.073894e-01
7.395410e-01
6.040831e-01
4.999844e-01
4.209536e-01
3.605621e-01
3.137164e-01
2.767196e-01
2.469672e-01
2.226308e-01
2.024156e-01
1.853917e-01
1.708797e-01
1.583753e-01
1.474975e-01
1.379542e-01
1.295182e-01
1.220105e-01
1.152881e-01
1.092358e-01
1.037597e-01
9.878267e-02
9.424049e-02
9.007962e-02
8.625493e-02
8.272815e-02
7.946663e-02
7.644236e-02
7.363116e-02
7.101208e-02
6.856684e-02
6.627948e-02
6.413596e-02
6.212390e-02
6.023237e-02
5.845162e-02
5.677301e-02
5.518878e-02
5.369203e-02
5.227651e-02
5.093664e-02
4.966734e-02
4.846407e-02
4.732266e-02
4.623938e-02
4.521080e-02
4.423381e-02
4.330559e-02
4.242354e-02
4.158530e-02
4.078871e-02
4.003179e-02
3.931273e-02
3.862987e-02
3.798169e-02
3.736679e-02
3.678389e-02
3.623184e-02
3.570954e-02
3.521603e-02
3.475042e-02
3.431188e-02
3.389968e-02
3.351314e-02
3.315167e-02
3.281471e-02
3.250179e-02
3.221246e-02
3.194636e-02
3.170316e-02
3.148257e-02
3.128437e-02
3.110837e-02
3.095443e-02
3.082245e-02
3.071238e-02
3.062420e-02
3.055794e-02
3.051367e-02
3.049150e-02
9.289858e-01
7.940608e-01
6.765030e-01
5.790062e-01
4.999741e-01
4.363103e-01
3.848556e-01
3.429181e-01
3.083696e-01
2.795819e-01
2.553234e-01
2.346631e-01
2.168931e-01
2.014708e-01
1.879759e-01
1.760795e-01
1.655211e-01
1.560929e-01
1.476268e-01
1.399861e-01
1.330584e-01
1.267504e-01
1.209845e-01
1.156953e-01
1.108275e-01
1.063340e-01
1.021745e-01
9.831421e-02
9.472311e-02
9.137509e-02
8.824734e-02
8.531987e-02
8.257507e-02
7.999740e-02
7.757307e-02
7.528985e-02
7.313679e-02
7.110413e-02
6.918311e-02
6.736583e-02
6.564522e-02
6.401485e-02
6.246893e-02
6.100219e-02
5.960987e-02
5.828762e-02
5.703148e-02
5.583785e-02
5.470343e-02
5.362521e-02
5.260043e-02
5.162658e-02
5.070132e-02
4.982256e-02
4.898834e-02
4.819689e-02
4.744656e-02
4.673588e-02
4.606346e-02
4.542805e-02
4.482852e-02
4.426382e-02
4.373301e-02
4.323522e-02
4.276968e-02
4.233570e-02
4.193265e-02
4.155999e-02
4.121722e-02
4.090395e-02
4.061979e-02
4.036447e-02
4.013775e-02
3.993943e-02
3.976941e-02
3.962760e-02
3.951400e-02
3.942863e-02
3.937160e-02
3.934304e-02
9.423705e-01
8.304434e-01
7.284304e-01
6.393886e-01
5.636262e-01
4.999611e-01
4.466582e-01
4.019482e-01
3.642543e-01
3.322578e-01
3.048907e-01
2.813008e-01
2.608117e-01
2.428864e-01
2.270971e-01
2.131008e-01
2.006211e-01
1.894331e-01
1.793531e-01
1.702295e-01
1.619365e-01
1.543691e-01
1.474387e-01
1.410707e-01
1.352014e-01
1.297762e-01
1.247484e-01
1.200773e-01
1.157279e-01
1.116694e-01
1.078751e-01
1.043212e-01
1.009869e-01
9.785386e-02
9.490563e-02
9.212765e-02
8.950687e-02
8.703162e-02
8.469143e-02
8.247686e-02
8.037939e-02
7.839135e-02
7.650574e-02
7.471627e-02
7.301717e-02
7.140323e-02
6.986966e-02
6.841212e-02
6.702663e-02
6.570956e-02
6.445757e-02
6.326761e-02
6.213689e-02
6.106284e-02
6.004311e-02
5.907555e-02
5.815817e-02
5.728917e-02
5.646689e-02
5.568980e-02
5.495652e-02
5.426580e-02
5.361648e-02
5.300751e-02
5.243797e-02
5.190700e-02
5.141386e-02
5.095787e-02
5.053845e-02
5.015509e-02
4.980736e-02
4.949491e-02
4.921744e-02
4.897474e-02
4.876665e-02
4.859309e-02
4.845405e-02
4.834957e-02
4.827977e-02
4.824481e-02
9.515029e-01
8.562098e-01
7.669195e-01
6.862252e-01
6.150691e-01
5.532496e-01
4.999454e-01
4.540924e-01
4.146061e-01
3.804907e-01
3.508804e-01
3.250445e-01
3.023764e-01
2.823763e-01
2.646338e-01
2.488114e-01
2.346312e-01
2.218631e-01
2.103161e-01
1.998306e-01
1.902728e-01
1.815294e-01
1.735047e-01
1.661170e-01
1.592960e-01
1.529817e-01
1.471219e-01
1.416712e-01
1.365902e-01
1.318445e-01
1.274035e-01
1.232406e-01
1.193320e-01
1.156568e-01
1.121963e-01
1.089337e-01
1.058541e-01
1.029441e-01
1.001917e-01
9.758590e-02
9.511698e-02
9.277602e-02
9.055496e-02
8.844648e-02
8.644393e-02
8.454122e-02
8.273283e-02
8.101369e-02
7.937919e-02
7.782508e-02
7.634749e-02
7.494287e-02
7.360795e-02
7.233974e-02
7.113550e-02
6.999270e-02
6.890905e-02
6.788242e-02
6.691087e-02
6.599263e-02
6.512608e-02
6.430974e-02
6.354226e-02
6.282244e-02
6.214916e-02
6.152145e-02
6.093841e-02
6.039927e-02
5.990334e-02
5.945004e-02
5.903885e-02
5.866935e-02
5.834121e-02
5.805419e-02
5.780809e-02
5.760283e-02
5.743838e-02
5.731481e-02
5.723225e-02
5.719091e-02
9.581462e-01
8.753379e-01
7.963463e-01
7.232129e-01
6.569949e-01
5.979452e-01
5.457814e-01
4.999270e-01
4.596853e-01
4.243459e-01
3.932431e-01
3.657813e-01
3.414425e-01
3.197833e-01
3.004275e-01
2.830577e-01
2.674063e-01
2.532476e-01
2.403909e-01
2.286748e-01
2.179620e-01
2.081354e-01
1.990948e-01
1.907538e-01
1.830382e-01
1.758834e-01
1.692335e-01
1.630393e-01
1.572582e-01
1.518523e-01
1.467885e-01
1.420373e-01
1.375726e-01
1.333713e-01
1.294125e-01
1.256777e-01
1.221502e-01
1.188152e-01
1.156591e-01
1.126698e-01
1.098363e-01
1.071485e-01
1.045974e-01
1.021747e-01
9.987301e-02
9.768541e-02
9.560566e-02
9.362803e-02
9.174728e-02
8.995864e-02
8.825768e-02
8.664040e-02
8.510308e-02
8.364232e-02
8.225502e-02
8.093830e-02
7.968954e-02
7.850632e-02
7.738645e-02
7.632790e-02
7.532883e-02
7.438755e-02
7.350253e-02
7.267238e-02
7.189585e-02
7.117182e-02
7.049927e-02
6.987732e-02
6.930518e-02
6.878219e-02
6.830776e-02
6.788142e-02
6.750279e-02
6.717158e-02
6.688760e-02
6.665073e-02
6.646096e-02
6.631836e-02
6.622308e-02
6.617537e-02
9.632021e-01
8.900725e-01
8.194641e-01
7.529562e-01
6.915317e-01
6.356247e-01
5.852506e-01
5.401490e-01
4.999060e-01
4.640414e-01
4.320660e-01
4.035143e-01
3.779612e-01
3.550278e-01
3.343824e-01
3.157366e-01
2.988418e-01
2.834839e-01
2.694790e-01
2.566687e-01
2.449167e-01
2.341054e-01
2.241329e-01
2.149109e-01
2.063626e-01
1.984210e-01
1.910273e-01
1.841300e-01
1.776838e-01
1.716486e-01
1.659888e-01
1.606730e-01
1.556731e-01
1.509639e-01
1.465231e-01
1.423306e-01
1.383681e-01
1.346195e-01
1.310700e-01
1.277062e-01
1.245161e-01
1.214888e-01
1.186142e-01
1.158832e-01
1.132876e-01
1.108199e-01
1.084731e-01
1.062408e-01
1.041173e-01
1.020972e-01
1.001757e-01
9.834836e-02
9.661095e-02
9.495975e-02
9.339127e-02
9.190234e-02
9.049002e-02
8.915163e-02
8.788471e-02
8.668700e-02
8.555644e-02
8.449115e-02
8.348943e-02
8.254972e-02
8.167063e-02
8.085089e-02
8.008939e-02
7.938512e-02
7.873721e-02
7.814492e-02
7.760761e-02
7.712473e-02
7.669587e-02
7.632071e-02
7.599902e-02
7.573070e-02
7.551573e-02
7.535419e-02
7.524625e-02
7.519220e-02
9.671812e-01
9.017600e-01
8.380525e-01
7.772835e-01
7.203076e-01
6.676069e-01
6.193489e-01
5.754687e-01
5.357482e-01
4.998823e-01
4.675269e-01
4.383314e-01
4.119585e-01
3.880950e-01
3.664568e-01
3.467901e-01
3.288704e-01
3.125005e-01
2.975073e-01
2.837400e-01
2.710666e-01
2.593719e-01
2.485550e-01
2.385277e-01
2.292124e-01
2.205410e-01
2.124534e-01
2.048965e-01
1.978235e-01
1.911924e-01
1.849663e-01
1.791120e-01
1.735999e-01
1.684035e-01
1.634989e-01
1.588648e-01
1.544819e-01
1.503326e-01
1.464013e-01
1.426735e-01
1.391362e-01
1.357777e-01
1.325872e-01
1.295548e-01
1.266715e-01
1.239292e-01
1.213203e-01
1.188379e-01
1.164758e-01
1.142281e-01
1.120895e-01
1.100551e-01
1.081204e-01
1.062813e-01
1.045340e-01
1.028749e-01
1.013010e-01
9.980914e-02
9.839675e-02
9.706132e-02
9.580059e-02
9.461249e-02
9.349515e-02
9.244686e-02
9.146609e-02
9.055145e-02
8.970171e-02
8.891577e-02
8.819268e-02
8.753162e-02
8.693187e-02
8.639286e-02
8.591412e-02
8.549531e-02
8.513618e-02
8.483662e-02
8.459662e-02
8.441625e-02
8.429574e-02
8.423540e-02
9.703953e-01
9.112516e-01
8.532964e-01
7.974896e-01
7.445544e-01
6.949596e-01
6.489422e-01
6.065519e-01
5.677013e-01
5.322127e-01
4.998560e-01
4.703765e-01
4.435149e-01
4.190194e-01
3.966533e-01
3.761987e-01
3.574579e-01
3.402533e-01
3.244265e-01
3.098365e-01
2.963585e-01
2.838820e-01
2.723094e-01
2.615540e-01
2.515393e-01
2.421975e-01
2.334680e-01
2.252975e-01
2.176380e-01
2.104469e-01
2.036861e-01
1.973214e-01
1.913222e-01
1.856608e-01
1.803124e-01
1.752546e-01
1.704671e-01
1.659316e-01
1.616312e-01
1.575510e-01
1.536770e-01
1.499968e-01
1.464988e-01
1.431727e-01
1.400087e-01
1.369981e-01
1.341329e-01
1.314057e-01
1.288097e-01
1.263387e-01
1.239869e-01
1.217491e-01
1.196204e-01
1.175964e-01
1.156729e-01
1.138463e-01
1.121129e-01
1.104697e-01
1.089138e-01
1.074424e-01
1.060530e-01
1.047435e-01
1.035119e-01
1.023562e-01
1.012748e-01
1.002663e-01
9.932919e-02
9.846239e-02
9.766484e-02
9.693564e-02
9.627403e-02
9.567939e-02
9.515121e-02
9.468913e-02
9.429289e-02
9.396235e-02
9.369752e-02
9.349850e-02
9.336552e-02
9.329893e-02
9.730461e-01
9.191101e-01
8.660090e-01
8.145045e-01
7.652030e-01
7.185352e-01
6.747612e-01
6.339941e-01
5.962307e-01
5.613833e-01
5.293079e-01
4.998271e-01
4.727476e-01
4.478723e-01
4.250086e-01
4.039738e-01
3.845975e-01
3.667231e-01
3.502082e-01
3.349240e-01
3.207546e-01
3.075961e-01
2.953555e-01
2.839495e-01
2.733038e-01
2.633518e-01
2.540339e-01
2.452969e-01
2.370930e-01
2.293792e-01
2.221169e-01
2.152715e-01
2.088117e-01
2.027091e-01
1.969382e-01
1.914758e-01
1.863010e-01
1.813945e-01
1.767392e-01
1.723191e-01
1.681199e-01
1.641283e-01
1.603323e-01
1.567209e-01
1.532840e-01
1.500122e-01
1.468971e-01
1.439309e-01
1.411064e-01
1.384169e-01
1.358563e-01
1.334191e-01
1.311002e-01
1.288946e-01
1.267982e-01
1.248067e-01
1.229166e-01
1.211245e-01
1.194271e-01
1.178217e-01
1.163056e-01
1.148764e-01
1.135319e-01
1.122703e-01
1.110896e-01
1.099882e-01
1.089648e-01
1.080181e-01
1.071469e-01
1.063504e-01
1.056276e-01
1.049779e-01
1.044008e-01
1.038959e-01
1.034630e-01
1.031018e-01
1.028124e-01
1.025949e-01
1.024495e-01
1.023768e-01
9.752699e-01
9.257218e-01
8.767635e-01
8.290074e-01
7.829614e-01
7.390100e-01
6.974124e-01
6.583133e-01
6.217617e-01
5.877314e-01
5.561421e-01
5.268766e-01
4.997957e-01
4.747494e-01
4.515847e-01
4.301511e-01
4.103049e-01
3.919106e-01
3.748424e-01
3.589846e-01
3.442316e-01
3.304870e-01
3.176639e-01
3.056834e-01
2.944742e-01
2.839724e-01
2.741198e-01
2.648643e-01
2.561587e-01
2.479605e-01
2.402312e-01
2.329358e-01
2.260430e-01
2.195240e-01
2.133529e-01
2.075061e-01
2.019621e-01
1.967014e-01
1.917059e-01
1.869596e-01
1.824473e-01
1.781555e-01
1.740716e-01
1.701842e-01
1.664827e-01
1.629574e-01
1.595994e-01
1.564006e-01
1.533534e-01
1.504508e-01
1.476864e-01
1.450543e-01
1.425492e-01
1.401659e-01
1.378999e-01
1.357468e-01
1.337029e-01
1.317644e-01
1.299281e-01
1.281910e-01
1.265502e-01
1.250032e-01
1.235477e-01
1.221816e-01
1.209030e-01
1.197102e-01
1.186017e-01
1.175761e-01
1.166323e-01
1.157693e-01
1.149861e-01
1.142821e-01
1.136567e-01
1.131095e-01
1.126402e-01
1.122487e-01
1.119350e-01
1.116993e-01
1.115418e-01
1.114629e-01
9.771622e-01
9.313606e-01
8.859746e-01
8.415028e-01
7.983720e-01
7.569210e-01
7.173956e-01
6.799531e-01
6.446729e-01
6.115702e-01
5.806102e-01
5.517219e-01
5.248095e-01
4.997619e-01
4.764604e-01
4.547840e-01
4.346133e-01
4.158331e-01
3.983342e-01
3.820143e-01
3.667784e-01
3.525387e-01
3.392149e-01
3.267334e-01
3.150269e-01
3.040345e-01
2.937005e-01
2.839744e-01
2.748103e-01
2.661664e-01
2.580047e-01
2.502909e-01
2.429934e-01
2.360836e-01
2.295355e-01
2.233253e-01
2.174312e-01
2.118333e-01
2.065135e-01
2.014550e-01
1.966427e-01
1.920625e-01
1.877015e-01
1.835479e-01
1.795908e-01
1.758202e-01
1.722269e-01
1.688024e-01
1.655388e-01
1.624289e-01
1.594660e-01
1.566440e-01
1.539572e-01
1.514003e-01
1.489685e-01
1.466574e-01
1.444628e-01
1.423810e-01
1.404085e-01
1.385420e-01
1.367788e-01
1.351161e-01
1.335515e-01
1.320827e-01
1.307079e-01
1.294251e-01
1.282328e-01
1.271296e-01
1.261143e-01
1.251857e-01
1.243430e-01
1.235855e-01
1.229125e-01
1.223236e-01
1.218185e-01
1.213971e-01
1.210595e-01
1.208058e-01
1.206362e-01
1.205513e-01
9.787920e-01
9.362255e-01
8.939485e-01
8.523717e-01
8.118554e-01
7.726962e-01
7.351214e-01
6.992895e-01
6.652964e-01
6.331838e-01
6.029492e-01
5.745558e-01
5.479419e-01
5.230284e-01
4.997256e-01
4.779381e-01
4.575686e-01
4.385208e-01
4.207011e-01
4.040206e-01
3.883948e-01
3.737450e-01
3.599978e-01
3.470854e-01
3.349452e-01
3.235199e-01
3.127566e-01
3.026070e-01
2.930270e-01
2.839760e-01
2.754171e-01
2.673164e-01
2.596430e-01
2.523685e-01
2.454671e-01
2.389150e-01
2.326903e-01
2.267732e-01
2.211452e-01
2.157895e-01
2.106907e-01
2.058344e-01
2.012077e-01
1.967983e-01
1.925952e-01
1.885880e-01
1.847674e-01
1.811245e-01
1.776513e-01
1.743403e-01
1.711846e-01
1.681779e-01
1.653142e-01
1.625882e-01
1.599947e-01
1.575293e-01
1.551875e-01
1.529656e-01
1.508598e-01
1.488669e-01
1.469837e-01
1.452076e-01
1.435360e-01
1.419665e-01
1.404971e-01
1.391260e-01
1.378515e-01
1.366720e-01
1.355863e-01
1.345933e-01
1.336921e-01
1.328818e-01
1.321619e-01
1.315320e-01
1.309917e-01
1.305410e-01
1.301797e-01
1.299083e-01
1.297268e-01
1.296360e-01
9.802102e-01
9.404651e-01
9.009163e-01
8.619061e-01
8.237404e-01
7.866784e-01
7.509271e-01
7.166401e-01
6.839204e-01
6.528261e-01
6.233768e-01
5.955610e-01
5.693432e-01
5.446701e-01
5.214759e-01
4.996871e-01
4.792260e-01
4.600133e-01
4.419703e-01
4.250202e-01
4.090894e-01
3.941078e-01
3.800093e-01
3.667322e-01
3.542189e-01
3.424159e-01
3.312737e-01
3.207466e-01
3.107925e-01
3.013726e-01
2.924510e-01
2.839951e-01
2.759746e-01
2.683618e-01
2.611310e-01
2.542588e-01
2.477236e-01
2.415054e-01
2.355860e-01
2.299484e-01
2.245770e-01
2.194576e-01
2.145769e-01
2.099225e-01
2.054833e-01
2.012487e-01
1.972091e-01
1.933556e-01
1.896799e-01
1.861743e-01
1.828319e-01
1.796460e-01
1.766107e-01
1.737202e-01
1.709695e-01
1.683538e-01
1.658686e-01
1.635100e-01
1.612741e-01
1.591576e-01
1.571572e-01
1.552702e-01
1.534938e-01
1.518257e-01
1.502638e-01
1.488060e-01
1.474508e-01
1.461965e-01
1.450418e-01
1.439856e-01
1.430269e-01
1.421649e-01
1.413990e-01
1.407287e-01
1.401538e-01
1.396741e-01
1.392897e-01
1.390008e-01
1.388078e-01
1.387111e-01
9.814556e-01
9.441920e-01
9.070553e-01
8.703333e-01
8.342873e-01
7.991443e-01
7.650909e-01
7.322724e-01
7.007935e-01
6.707215e-01
6.420908e-01
6.149080e-01
5.891576e-01
5.648064e-01
5.418084e-01
5.201087e-01
4.996464e-01
4.803573e-01
4.621760e-01
4.450375e-01
4.288781e-01
4.136362e-01
3.992531e-01
3.856730e-01
3.728435e-01
3.607153e-01
3.492425e-01
3.383821e-01
3.280945e-01
3.183428e-01
3.090928e-01
3.003129e-01
2.919739e-01
2.840487e-01
2.765126e-01
2.693423e-01
2.625167e-01
2.560160e-01
2.498221e-01
2.439181e-01
2.382887e-01
2.329192e-01
2.277966e-01
2.229084e-01
2.182433e-01
2.137908e-01
2.095410e-01
2.054849e-01
2.016141e-01
1.979209e-01
1.943981e-01
1.910390e-01
1.878373e-01
1.847875e-01
1.818841e-01
1.791224e-01
1.764978e-01
1.740061e-01
1.716435e-01
1.694065e-01
1.672918e-01
1.652964e-01
1.634178e-01
1.616533e-01
1.600009e-01
1.584584e-01
1.570242e-01
1.556966e-01
1.544744e-01
1.533562e-01
1.523412e-01
1.514284e-01
1.506174e-01
1.499076e-01
1.492987e-01
1.487907e-01
1.483835e-01
1.480775e-01
1.478730e-01
1.477706e-01
9.825577e-01
9.474935e-01
9.125036e-01
8.778323e-01
8.437043e-01
8.103184e-01
7.778426e-01
7.464122e-01
7.161299e-01
6.870675e-01
6.592688e-01
6.327533e-01
6.075203e-01
5.835524e-01
5.608197e-01
5.392823e-01
5.188939e-01
4.996036e-01
4.813579e-01
4.641023e-01
4.477825e-01
4.323450e-01
4.177380e-01
4.039120e-01
3.908194e-01
3.784154e-01
3.666576e-01
3.555063e-01
3.449243e-01
3.348768e-01
3.253314e-01
3.162581e-01
3.076286e-01
2.994171e-01
2.915994e-01
2.841530e-01
2.770571e-01
2.702925e-01
2.638412e-01
2.576867e-01
2.518136e-01
2.462076e-01
2.408554e-01
2.357448e-01
2.308645e-01
2.262037e-01
2.217527e-01
2.175024e-01
2.134442e-01
2.095705e-01
2.058738e-01
2.023475e-01
1.989852e-01
1.957812e-01
1.927301e-01
1.898269e-01
1.870669e-01
1.844460e-01
1.819603e-01
1.796060e-01
1.773800e-01
1.752792e-01
1.733009e-01
1.714424e-01
1.697017e-01
1.680765e-01
1.665651e-01
1.651660e-01
1.638776e-01
1.626989e-01
1.616288e-01
1.606664e-01
1.598112e-01
1.590626e-01
1.584205e-01
1.578847e-01
1.574553e-01
1.571325e-01
1.569168e-01
1.568088e-01
9.835400e-01
9.504382e-01
9.173705e-01
8.845460e-01
8.521592e-01
8.203847e-01
7.893734e-01
7.592502e-01
7.301136e-01
7.020369e-01
6.750694e-01
6.492394e-01
6.245572e-01
6.010175e-01
5.786030e-01
5.572866e-01
5.370340e-01
5.178058e-01
4.995588e-01
4.822483e-01
4.658284e-01
4.502533e-01
4.354777e-01
4.214579e-01
4.081513e-01
3.955175e-01
3.835178e-01
3.721156e-01
3.612763e-01
3.509676e-01
3.411590e-01
3.318218e-01
3.229294e-01
3.144569e-01
3.063810e-01
2.986801e-01
2.913341e-01
2.843240e-01
2.776325e-01
2.712432e-01
2.651411e-01
2.593120e-01
2.537429e-01
2.484215e-01
2.433365e-01
2.384774e-01
2.338344e-01
2.293984e-01
2.251609e-01
2.211139e-01
2.172502e-01
2.135630e-01
2.100460e-01
2.066932e-01
2.034993e-01
2.004592e-01
1.975683e-01
1.948222e-01
1.922170e-01
1.897491e-01
1.874149e-01
1.852116e-01
1.831363e-01
1.811863e-01
1.793595e-01
1.776538e-01
1.760672e-01
1.745982e-01
1.732454e-01
1.720075e-01
1.708836e-01
1.698727e-01
1.689743e-01
1.681879e-01
1.675133e-01
1.669503e-01
1.664991e-01
1.661600e-01
1.659333e-01
1.658198e-01
9.844207e-01
9.530804e-01
9.217433e-01
8.905897e-01
8.597889e-01
8.294948e-01
7.998429e-01
7.709478e-01
7.429029e-01
7.157807e-01
6.896334e-01
6.644952e-01
6.403840e-01