# vtk DataFile Version 3.0
13.TVD_MUSCL scheme
ASCII
DATASET STRUCTURED_GRID
DIMENSIONS 41 41 1
POINTS 1681 double
0.000000e+00 0.000000e+00 0.0
2.500000e-02 0.000000e+00 0.0
5.000000e-02 0.000000e+00 0.0
7.500000e-02 0.000000e+00 0.0
1.000000e-01 0.000000e+00 0.0
1.250000e-01 0.000000e+00 0.0
1.500000e-01 0.000000e+00 0.0
1.750000e-01 0.000000e+00 0.0
2.000000e-01 0.000000e+00 0.0
2.250000e-01 0.000000e+00 0.0
2.500000e-01 0.000000e+00 0.0
2.750000e-01 0.000000e+00 0.0
3.000000e-01 0.000000e+00 0.0
3.250000e-01 0.000000e+00 0.0
3.500000e-01 0.000000e+00 0.0
3.750000e-01 0.000000e+00 0.0
4.000000e-01 0.000000e+00 0.0
4.250000e-01 0.000000e+00 0.0
4.500000e-01 0.000000e+00 0.0
4.750000e-01 0.000000e+00 0.0
5.000000e-01 0.000000e+00 0.0
5.250000e-01 0.000000e+00 0.0
5.500000e-01 0.000000e+00 0.0
5.750000e-01 0.000000e+00 0.0
6.000000e-01 0.000000e+00 0.0
6.250000e-01 0.000000e+00 0.0
6.500000e-01 0.000000e+00 0.0
6.750000e-01 0.000000e+00 0.0
7.000000e-01 0.000000e+00 0.0
7.250000e-01 0.000000e+00 0.0
7.500000e-01 0.000000e+00 0.0
7.750000e-01 0.000000e+00 0.0
8.000000e-01 0.000000e+00 0.0
8.250000e-01 0.000000e+00 0.0
8.500000e-01 0.000000e+00 0.0
8.750000e-01 0.000000e+00 0.0
9.000000e-01 0.000000e+00 0.0
9.250000e-01 0.000000e+00 0.0
9.500000e-01 0.000000e+00 0.0
9.750000e-01 0.000000e+00 0.0
1.000000e+00 0.000000e+00 0.0
0.000000e+00 2.500000e-02 0.0
2.500000e-02 2.500000e-02 0.0
5.000000e-02 2.500000e-02 0.0
7.500000e-02 2.500000e-02 0.0
1.000000e-01 2.500000e-02 0.0
1.250000e-01 2.500000e-02 0.0
1.500000e-01 2.500000e-02 0.0
1.750000e-01 2.500000e-02 0.0
2.000000e-01 2.500000e-02 0.0
2.250000e-01 2.500000e-02 0.0
2.500000e-01 2.500000e-02 0.0
2.750000e-01 2.500000e-02 0.0
3.000000e-01 2.500000e-02 0.0
3.250000e-01 2.500000e-02 0.0
3.500000e-01 2.500000e-02 0.0
3.750000e-01 2.500000e-02 0.0
4.000000e-01 2.500000e-02 0.0
4.250000e-01 2.500000e-02 0.0
4.500000e-01 2.500000e-02 0.0
4.750000e-01 2.500000e-02 0.0
5.000000e-01 2.500000e-02 0.0
5.250000e-01 2.500000e-02 0.0
5.500000e-01 2.500000e-02 0.0
5.750000e-01 2.500000e-02 0.0
6.000000e-01 2.500000e-02 0.0
6.250000e-01 2.500000e-02 0.0
6.500000e-01 2.500000e-02 0.0
6.750000e-01 2.500000e-02 0.0
7.000000e-01 2.500000e-02 0.0
7.250000e-01 2.500000e-02 0.0
7.500000e-01 2.500000e-02 0.0
7.750000e-01 2.500000e-02 0.0
8.000000e-01 2.500000e-02 0.0
8.250000e-01 2.500000e-02 0.0
8.500000e-01 2.500000e-02 0.0
8.750000e-01 2.500000e-02 0.0
9.000000e-01 2.500000e-02 0.0
9.250000e-01 2.500000e-02 0.0
9.500000e-01 2.500000e-02 0.0
9.750000e-01 2.500000e-02 0.0
1.000000e+00 2.500000e-02 0.0
0.000000e+00 5.000000e-02 0.0
2.500000e-02 5.000000e-02 0.0
5.000000e-02 5.000000e-02 0.0
7.500000e-02 5.000000e-02 0.0
1.000000e-01 5.000000e-02 0.0
1.250000e-01 5.000000e-02 0.0
1.500000e-01 5.000000e-02 0.0
1.750000e-01 5.000000e-02 0.0
2.000000e-01 5.000000e-02 0.0
2.250000e-01 5.000000e-02 0.0
2.500000e-01 5.000000e-02 0.0
2.750000e-01 5.000000e-02 0.0
3.000000e-01 5.000000e-02 0.0
3.250000e-01 5.000000e-02 0.0
3.500000e-01 5.000000e-02 0.0
3.750000e-01 5.000000e-02 0.0
4.000000e-01 5.000000e-02 0.0
4.250000e-01 5.000000e-02 0.0
4.500000e-01 5.000000e-02 0.0
4.750000e-01 5.000000e-02 0.0
5.000000e-01 5.000000e-02 0.0
5.250000e-01 5.000000e-02 0.0
5.500000e-01 5.000000e-02 0.0
5.750000e-01 5.000000e-02 0.0
6.000000e-01 5.000000e-02 0.0
6.250000e-01 5.000000e-02 0.0
6.500000e-01 5.000000e-02 0.0
6.750000e-01 5.000000e-02 0.0
7.000000e-01 5.000000e-02 0.0
7.250000e-01 5.000000e-02 0.0
7.500000e-01 5.000000e-02 0.0
7.750000e-01 5.000000e-02 0.0
8.000000e-01 5.000000e-02 0.0
8.250000e-01 5.000000e-02 0.0
8.500000e-01 5.000000e-02 0.0
8.750000e-01 5.000000e-02 0.0
9.000000e-01 5.000000e-02 0.0
9.250000e-01 5.000000e-02 0.0
9.500000e-01 5.000000e-02 0.0
9.750000e-01 5.000000e-02 0.0
1.000000e+00 5.000000e-02 0.0
0.000000e+00 7.500000e-02 0.0
2.500000e-02 7.500000e-02 0.0
5.000000e-02 7.500000e-02 0.0
7.500000e-02 7.500000e-02 0.0
1.000000e-01 7.500000e-02 0.0
1.250000e-01 7.500000e-02 0.0
1.500000e-01 7.500000e-02 0.0
1.750000e-01 7.500000e-02 0.0
2.000000e-01 7.500000e-02 0.0
2.250000e-01 7.500000e-02 0.0
2.500000e-01 7.500000e-02 0.0
2.750000e-01 7.500000e-02 0.0
3.000000e-01 7.500000e-02 0.0
3.250000e-01 7.500000e-02 0.0
3.500000e-01 7.500000e-02 0.0
3.750000e-01 7.500000e-02 0.0
4.000000e-01 7.500000e-02 0.0
4.250000e-01 7.500000e-02 0.0
4.500000e-01 7.500000e-02 0.0
4.750000e-01 7.500000e-02 0.0
5.000000e-01 7.500000e-02 0.0
5.250000e-01 7.500000e-02 0.0
5.500000e-01 7.500000e-02 0.0
5.750000e-01 7.500000e-02 0.0
6.000000e-01 7.500000e-02 0.0
6.250000e-01 7.500000e-02 0.0
6.500000e-01 7.500000e-02 0.0
6.750000e-01 7.500000e-02 0.0
7.000000e-01 7.500000e-02 0.0
7.250000e-01 7.500000e-02 0.0
7.500000e-01 7.500000e-02 0.0
7.750000e-01 7.500000e-02 0.0
8.000000e-01 7.500000e-02 0.0
8.250000e-01 7.500000e-02 0.0
8.500000e-01 7.500000e-02 0.0
8.750000e-01 7.500000e-02 0.0
9.000000e-01 7.500000e-02 0.0
9.250000e-01 7.500000e-02 0.0
9.500000e-01 7.500000e-02 0.0
9.750000e-01 7.500000e-02 0.0
1.000000e+00 7.500000e-02 0.0
0.000000e+00 1.000000e-01 0.0
2.500000e-02 1.000000e-01 0.0
5.000000e-02 1.000000e-01 0.0
7.500000e-02 1.000000e-01 0.0
1.000000e-01 1.000000e-01 0.0
1.250000e-01 1.000000e-01 0.0
1.500000e-01 1.000000e-01 0.0
1.750000e-01 1.000000e-01 0.0
2.000000e-01 1.000000e-01 0.0
2.250000e-01 1.000000e-01 0.0
2.500000e-01 1.000000e-01 0.0
2.750000e-01 1.000000e-01 0.0
3.000000e-01 1.000000e-01 0.0
3.250000e-01 1.000000e-01 0.0
3.500000e-01 1.000000e-01 0.0
3.750000e-01 1.000000e-01 0.0
4.000000e-01 1.000000e-01 0.0
4.250000e-01 1.000000e-01 0.0
4.500000e-01 1.000000e-01 0.0
4.750000e-01 1.000000e-01 0.0
5.000000e-01 1.000000e-01 0.0
5.250000e-01 1.000000e-01 0.0
5.500000e-01 1.000000e-01 0.0
5.750000e-01 1.000000e-01 0.0
6.000000e-01 1.000000e-01 0.0
6.250000e-01 1.000000e-01 0.0
6.500000e-01 1.000000e-01 0.0
6.750000e-01 1.000000e-01 0.0
7.000000e-01 1.000000e-01 0.0
7.250000e-01 1.000000e-01 0.0
7.500000e-01 1.000000e-01 0.0
7.750000e-01 1.000000e-01 0.0
8.000000e-01 1.000000e-01 0.0
8.250000e-01 1.000000e-01 0.0
8.500000e-01 1.000000e-01 0.0
8.750000e-01 1.000000e-01 0.0
9.000000e-01 1.000000e-01 0.0
9.250000e-01 1.000000e-01 0.0
9.500000e-01 1.000000e-01 0.0
9.750000e-01 1.000000e-01 0.0
1.000000e+00 1.000000e-01 0.0
0.000000e+00 1.250000e-01 0.0
2.500000e-02 1.250000e-01 0.0
5.000000e-02 1.250000e-01 0.0
7.500000e-02 1.250000e-01 0.0
1.000000e-01 1.250000e-01 0.0
1.250000e-01 1.250000e-01 0.0
1.500000e-01 1.250000e-01 0.0
1.750000e-01 1.250000e-01 0.0
2.000000e-01 1.250000e-01 0.0
2.250000e-01 1.250000e-01 0.0
2.500000e-01 1.250000e-01 0.0
2.750000e-01 1.250000e-01 0.0
3.000000e-01 1.250000e-01 0.0
3.250000e-01 1.250000e-01 0.0
3.500000e-01 1.250000e-01 0.0
3.750000e-01 1.250000e-01 0.0
4.000000e-01 1.250000e-01 0.0
4.250000e-01 1.250000e-01 0.0
4.500000e-01 1.250000e-01 0.0
4.750000e-01 1.250000e-01 0.0
5.000000e-01 1.250000e-01 0.0
5.250000e-01 1.250000e-01 0.0
5.500000e-01 1.250000e-01 0.0
5.750000e-01 1.250000e-01 0.0
6.000000e-01 1.250000e-01 0.0
6.250000e-01 1.250000e-01 0.0
6.500000e-01 1.250000e-01 0.0
6.750000e-01 1.250000e-01 0.0
7.000000e-01 1.250000e-01 0.0
7.250000e-01 1.250000e-01 0.0
7.500000e-01 1.250000e-01 0.0
7.750000e-01 1.250000e-01 0.0
8.000000e-01 1.250000e-01 0.0
8.250000e-01 1.250000e-01 0.0
8.500000e-01 1.250000e-01 0.0
8.750000e-01 1.250000e-01 0.0
9.000000e-01 1.250000e-01 0.0
9.250000e-01 1.250000e-01 0.0
9.500000e-01 1.250000e-01 0.0
9.750000e-01 1.250000e-01 0.0
1.000000e+00 1.250000e-01 0.0
0.000000e+00 1.500000e-01 0.0
2.500000e-02 1.500000e-01 0.0
5.000000e-02 1.500000e-01 0.0
7.500000e-02 1.500000e-01 0.0
1.000000e-01 1.500000e-01 0.0
1.250000e-01 1.500000e-01 0.0
1.500000e-01 1.500000e-01 0.0
1.750000e-01 1.500000e-01 0.0
2.000000e-01 1.500000e-01 0.0
2.250000e-01 1.500000e-01 0.0
2.500000e-01 1.500000e-01 0.0
2.750000e-01 1.500000e-01 0.0
3.000000e-01 1.500000e-01 0.0
3.250000e-01 1.500000e-01 0.0
3.500000e-01 1.500000e-01 0.0
3.750000e-01 1.500000e-01 0.0
4.000000e-01 1.500000e-01 0.0
4.250000e-01 1.500000e-01 0.0
4.500000e-01 1.500000e-01 0.0
4.750000e-01 1.500000e-01 0.0
5.000000e-01 1.500000e-01 0.0
5.250000e-01 1.500000e-01 0.0
5.500000e-01 1.500000e-01 0.0
5.750000e-01 1.500000e-01 0.0
6.000000e-01 1.500000e-01 0.0
6.250000e-01 1.500000e-01 0.0
6.500000e-01 1.500000e-01 0.0
6.750000e-01 1.500000e-01 0.0
7.000000e-01 1.500000e-01 0.0
7.250000e-01 1.500000e-01 0.0
7.500000e-01 1.500000e-01 0.0
7.750000e-01 1.500000e-01 0.0
8.000000e-01 1.500000e-01 0.0
8.250000e-01 1.500000e-01 0.0
8.500000e-01 1.500000e-01 0.0
8.750000e-01 1.500000e-01 0.0
9.000000e-01 1.500000e-01 0.0
9.250000e-01 1.500000e-01 0.0
9.500000e-01 1.500000e-01 0.0
9.750000e-01 1.500000e-01 0.0
1.000000e+00 1.500000e-01 0.0
0.000000e+00 1.750000e-01 0.0
2.500000e-02 1.750000e-01 0.0
5.000000e-02 1.750000e-01 0.0
7.500000e-02 1.750000e-01 0.0
1.000000e-01 1.750000e-01 0.0
1.250000e-01 1.750000e-01 0.0
1.500000e-01 1.750000e-01 0.0
1.750000e-01 1.750000e-01 0.0
2.000000e-01 1.750000e-01 0.0
2.250000e-01 1.750000e-01 0.0
2.500000e-01 1.750000e-01 0.0
2.750000e-01 1.750000e-01 0.0
3.000000e-01 1.750000e-01 0.0
3.250000e-01 1.750000e-01 0.0
3.500000e-01 1.750000e-01 0.0
3.750000e-01 1.750000e-01 0.0
4.000000e-01 1.750000e-01 0.0
4.250000e-01 1.750000e-01 0.0
4.500000e-01 1.750000e-01 0.0
4.750000e-01 1.750000e-01 0.0
5.000000e-01 1.750000e-01 0.0
5.250000e-01 1.750000e-01 0.0
5.500000e-01 1.750000e-01 0.0
5.750000e-01 1.750000e-01 0.0
6.000000e-01 1.750000e-01 0.0
6.250000e-01 1.750000e-01 0.0
6.500000e-01 1.750000e-01 0.0
6.750000e-01 1.750000e-01 0.0
7.000000e-01 1.750000e-01 0.0
7.250000e-01 1.750000e-01 0.0
7.500000e-01 1.750000e-01 0.0
7.750000e-01 1.750000e-01 0.0
8.000000e-01 1.750000e-01 0.0
8.250000e-01 1.750000e-01 0.0
8.500000e-01 1.750000e-01 0.0
8.750000e-01 1.750000e-01 0.0
9.000000e-01 1.750000e-01 0.0
9.250000e-01 1.750000e-01 0.0
9.500000e-01 1.750000e-01 0.0
9.750000e-01 1.750000e-01 0.0
1.000000e+00 1.750000e-01 0.0
0.000000e+00 2.000000e-01 0.0
[...]
CELL_DATA 1600
SCALARS Temperature double 1
LOOKUP_TABLE default
5.000000e-01
2.132323e-01
1.186582e-01
7.878510e-02
5.773099e-02
4.479111e-02
3.604491e-02
2.975422e-02
2.502855e-02
2.136224e-02
1.844603e-02
1.607991e-02
1.412871e-02
1.249781e-02
1.111901e-02
9.941934e-03
8.928558e-03
8.049686e-03
7.282532e-03
6.609066e-03
6.014852e-03
5.488202e-03
5.019572e-03
4.601100e-03
4.226269e-03
3.889649e-03
3.586698e-03
3.313615e-03
3.067220e-03
2.844874e-03
2.644412e-03
2.464104e-03
2.302627e-03
2.159065e-03
2.032915e-03
1.924127e-03
1.833154e-03
1.761041e-03
1.709545e-03
1.681300e-03
7.867676e-01
4.999999e-01
3.364197e-01
2.418337e-01
1.834097e-01
1.447299e-01
1.175885e-01
9.765385e-02
8.248273e-02
7.060944e-02
6.110657e-02
5.336062e-02
4.695038e-02
4.157749e-02
3.702494e-02
3.313129e-02
2.977404e-02
2.685865e-02
2.431106e-02
2.207248e-02
2.009572e-02
1.834247e-02
1.678139e-02
1.538662e-02
1.413668e-02
1.301367e-02
1.200258e-02
1.109085e-02
1.026796e-02
9.525174e-03
8.855323e-03
8.252677e-03
7.712862e-03
7.232849e-03
6.810993e-03
6.447146e-03
6.142849e-03
5.901619e-03
5.729346e-03
5.634850e-03
8.813416e-01
6.635798e-01
4.999995e-01
3.848259e-01
3.039273e-01
2.458519e-01
2.029579e-01
1.703823e-01
1.450217e-01
1.248527e-01
1.085191e-01
9.508618e-02
8.389239e-02
7.445830e-02
6.642894e-02
5.953644e-02
5.357524e-02
4.838521e-02
4.383991e-02
3.983832e-02
3.629889e-02
3.315511e-02
3.035232e-02
2.784529e-02
2.559633e-02
2.357391e-02
2.175159e-02
2.010715e-02
1.862197e-02
1.728059e-02
1.607028e-02
1.498088e-02
1.400467e-02
1.313628e-02
1.237286e-02
1.171424e-02
1.116330e-02
1.072646e-02
1.041446e-02
1.024331e-02
9.212147e-01
7.581656e-01
6.151727e-01
4.999989e-01
4.102956e-01
3.408641e-01
2.867437e-01
2.440224e-01
2.098139e-01
1.820336e-01
1.591762e-01
1.401451e-01
1.241311e-01
1.105282e-01
9.887620e-02
8.882062e-02
8.008476e-02
7.245006e-02
6.574197e-02
5.981966e-02
5.456843e-02
4.989414e-02
4.571892e-02
4.197796e-02
3.861702e-02
3.559056e-02
3.286023e-02
3.039373e-02
2.816394e-02
2.614825e-02
2.432809e-02
2.268862e-02
2.121855e-02
1.991014e-02
1.875934e-02
1.776613e-02
1.693502e-02
1.627587e-02
1.580500e-02
1.554666e-02
9.422687e-01
8.165893e-01
6.960707e-01
5.897014e-01
4.999980e-01
4.259509e-01
3.652521e-01
3.154373e-01
2.743325e-01
2.401626e-01
2.115264e-01
1.873321e-01
1.667310e-01
1.490616e-01
1.338044e-01
1.205487e-01
1.089670e-01
9.879576e-02
8.982143e-02
8.186939e-02
7.479590e-02
6.848184e-02
6.282787e-02
5.775072e-02
5.318031e-02
4.905744e-02
4.533204e-02
4.196179e-02
3.891103e-02
3.615000e-02
3.365420e-02
3.140405e-02
2.938474e-02
2.758618e-02
2.600327e-02
2.463639e-02
2.349210e-02
2.258426e-02
2.193557e-02
2.157963e-02
9.552085e-01
8.552687e-01
7.541455e-01
6.591321e-01
5.740437e-01
4.999964e-01
4.365436e-01
3.825376e-01
3.366368e-01
2.975539e-01
2.641550e-01
2.354823e-01
2.107438e-01
1.892914e-01
1.705959e-01
1.542253e-01
1.398260e-01
1.271073e-01
1.158289e-01
1.057915e-01
9.682868e-02
8.880086e-02
8.159055e-02
7.509838e-02
6.924003e-02
6.394387e-02
5.914893e-02
5.480346e-02
5.086368e-02
4.729293e-02
4.406105e-02
4.114393e-02
3.852337e-02
3.618720e-02
3.412955e-02
3.235153e-02
3.086225e-02
2.968021e-02
2.883534e-02
2.837167e-02
9.639546e-01
8.824097e-01
7.970388e-01
7.132513e-01
6.347410e-01
5.634474e-01
4.999942e-01
4.441920e-01
3.954295e-01
3.529288e-01
3.158899e-01
2.835639e-01
2.552831e-01
2.304680e-01
2.086234e-01
1.893295e-01
1.722320e-01
1.570317e-01
1.434762e-01
1.313519e-01
1.204778e-01
1.107000e-01
1.018871e-01
9.392719e-02
8.672417e-02
8.019587e-02
7.427189e-02
6.889211e-02
6.400550e-02
5.956915e-02
5.554773e-02
5.191304e-02
4.864393e-02
4.572649e-02
4.315451e-02
4.093034e-02
3.906616e-02
3.758582e-02
3.652736e-02
3.594634e-02
9.702451e-01
9.023439e-01
8.296137e-01
7.559715e-01
6.845542e-01
6.174512e-01
5.557938e-01
4.999912e-01
4.499790e-01
4.054195e-01
3.658415e-01
3.307296e-01
2.995755e-01
2.719047e-01
2.472883e-01
2.253462e-01
2.057458e-01
1.881977e-01
1.724514e-01
1.582902e-01
1.455273e-01
1.340010e-01
1.235717e-01
1.141188e-01
1.055376e-01
9.773809e-02
9.064226e-02
8.418321e-02
7.830382e-02
7.295597e-02
6.809992e-02
6.370409e-02
5.974495e-02
5.620744e-02
5.308553e-02
5.038339e-02
4.811695e-02
4.631615e-02
4.502801e-02
4.432075e-02
9.749706e-01
9.175146e-01
8.549734e-01
7.901786e-01
7.256572e-01
6.633496e-01
6.045532e-01
5.499996e-01
4.999870e-01
4.545146e-01
4.133939e-01
3.763317e-01
3.429869e-01
3.130068e-01
2.860486e-01
2.617912e-01
2.399412e-01
2.202341e-01
2.024340e-01
1.863319e-01
1.717434e-01
1.585064e-01
1.464784e-01
1.355346e-01
1.255658e-01
1.164765e-01
1.081838e-01
1.006157e-01
9.371065e-02
8.741654e-02
8.169031e-02
7.649783e-02
7.181404e-02
6.762338e-02
6.392074e-02
6.071277e-02
5.801985e-02
5.587882e-02
5.434662e-02
5.350512e-02
9.786368e-01
9.293874e-01
8.751415e-01
8.179575e-01
7.598251e-01
7.024299e-01
6.470506e-01
5.945550e-01
5.454544e-01
4.999815e-01
4.581681e-01
4.199117e-01
3.850273e-01
3.532850e-01
3.244359e-01
2.982288e-01
2.744211e-01
2.527844e-01
2.331080e-01
2.151992e-01
1.988843e-01
1.840070e-01
1.704275e-01
1.580215e-01
1.466787e-01
1.363017e-01
1.268050e-01
1.181139e-01
1.101641e-01
1.029009e-01
9.627925e-02
9.026355e-02
8.482810e-02
7.995774e-02
7.564904e-02
7.191191e-02
6.877198e-02
6.627381e-02
6.448511e-02
6.350246e-02
9.815528e-01
9.388897e-01
8.914740e-01
8.408133e-01
7.884591e-01
7.358259e-01
6.840858e-01
6.341284e-01
5.865696e-01
5.417883e-01
4.999743e-01
4.611761e-01
4.253426e-01
3.923571e-01
3.620628e-01
3.342822e-01
3.088292e-01
2.855188e-01
2.641725e-01
2.446215e-01
2.267086e-01
2.102893e-01
1.952316e-01
1.814160e-01
1.687350e-01
1.570922e-01
1.464022e-01
1.365899e-01
1.275902e-01
1.193474e-01
1.118159e-01
1.049598e-01
9.875387e-02
9.318433e-02
8.825026e-02
8.396570e-02
8.036236e-02
7.749331e-02
7.543795e-02
7.430844e-02
9.839188e-01
9.466350e-01
9.049058e-01
8.598427e-01
8.126510e-01
7.644955e-01
7.164078e-01
6.692353e-01
6.236258e-01
5.800375e-01
5.387641e-01
4.999651e-01
4.636971e-01
4.299405e-01
3.986231e-01
3.696378e-01
3.428569e-01
3.181417e-01
2.953502e-01
2.743422e-01
2.549822e-01
2.371420e-01
2.207017e-01
2.055503e-01
1.915864e-01
1.787180e-01
1.668622e-01
1.559458e-01
1.459046e-01
1.366841e-01
1.282393e-01
1.205353e-01
1.135487e-01
1.072679e-01
1.016956e-01
9.685074e-02
9.277200e-02
8.952183e-02
8.719209e-02
8.591135e-02
9.858698e-01
9.530445e-01
9.160984e-01
8.758549e-01
8.332495e-01
7.892305e-01
7.446842e-01
7.003840e-01
6.569640e-01
6.149141e-01
5.745884e-01
5.362225e-01
4.999536e-01
4.658413e-01
4.338859e-01
4.040448e-01
3.762454e-01
3.503957e-01
3.263920e-01
3.041251e-01
2.834845e-01
2.643615e-01
2.466517e-01
2.302560e-01
2.150819e-01
2.010442e-01
1.880655e-01
1.760762e-01
1.650153e-01
1.548307e-01
1.454799e-01
1.369304e-01
1.291614e-01
1.221649e-01
1.159480e-01
1.105357e-01
1.059743e-01
1.023364e-01
9.972711e-02
9.829220e-02
9.875005e-01
9.584167e-01
9.255311e-01
8.894558e-01
8.509161e-01
8.106792e-01
7.694947e-01
7.280490e-01
6.869371e-01
6.466479e-01
6.075640e-01
5.699675e-01
5.340526e-01
4.999393e-01
4.676875e-01
4.373102e-01
4.087850e-01
3.820638e-01
3.570806e-01
3.337580e-01
3.120122e-01
2.917561e-01
2.729031e-01
2.553683e-01
2.390708e-01
2.239344e-01
2.098890e-01
1.968709e-01
1.848241e-01
1.737004e-01
1.634612e-01
1.540778e-01
1.455333e-01
1.378242e-01
1.309631e-01
1.249818e-01
1.199351e-01
1.159067e-01
1.130155e-01
1.114249e-01
9.888790e-01
9.629685e-01
9.335591e-01
9.011056e-01
8.661703e-01
8.293708e-01
7.913343e-01
7.526592e-01
7.138877e-01
6.754881e-01
6.378475e-01
6.012725e-01
5.659937e-01
5.321747e-01
4.999218e-01
4.692939e-01
4.403120e-01
4.129678e-01
3.872308e-01
3.630546e-01
3.403821e-01
3.191490e-01
2.992877e-01
2.807293e-01
2.634061e-01
2.472530e-01
2.322087e-01
2.182172e-01
2.052289e-01
1.932015e-01
1.821012e-01
1.719044e-01
1.625993e-01
1.541881e-01
1.466897e-01
1.401436e-01
1.346139e-01
1.301959e-01
1.270230e-01
1.252768e-01
9.900558e-01
9.668613e-01
9.404501e-01
9.111589e-01
8.794228e-01
8.457371e-01
8.106227e-01
7.745946e-01
7.381370e-01
7.016855e-01
6.656168e-01
6.302445e-01
5.958195e-01
5.625345e-01
5.305298e-01
4.999007e-01
4.707041e-01
4.429664e-01
4.166892e-01
3.918551e-01
3.684327e-01
3.463805e-01
3.256504e-01
3.061904e-01
2.879472e-01
2.708680e-01
2.549018e-01
2.400018e-01
2.261261e-01
2.132391e-01
2.013137e-01
1.903323e-01
1.802893e-01
1.711933e-01
1.630708e-01
1.559694e-01
1.499636e-01
1.451606e-01
1.417089e-01
1.398085e-01
9.910690e-01
9.702176e-01
9.464096e-01
9.198923e-01
8.910011e-01
8.601319e-01
8.277145e-01
7.941879e-01
7.599784e-01
7.254829e-01
6.910577e-01
6.570113e-01
6.236025e-01
5.910411e-01
5.594906e-01
5.290734e-01
4.998754e-01
4.719518e-01
4.453321e-01
4.200254e-01
3.960241e-01
3.733086e-01
3.518502e-01
3.316139e-01
3.125615e-01
2.946529e-01
2.778491e-01
2.621129e-01
2.474114e-01
2.337171e-01
2.210101e-01
2.092802e-01
1.985287e-01
1.887719e-01
1.800441e-01
1.724024e-01
1.659316e-01
1.607519e-01
1.570269e-01
1.549752e-01
9.919475e-01
9.731321e-01
9.515980e-01
9.275244e-01
9.011687e-01
8.728459e-01
8.429088e-01
8.117285e-01
7.796764e-01
7.471087e-01
7.143552e-01
6.817116e-01
6.494350e-01
6.177426e-01
5.868124e-01
5.567858e-01
5.277706e-01
4.998454e-01
4.730633e-01
4.474560e-01
4.230381e-01
3.998099e-01
3.777614e-01
3.568744e-01
3.371255e-01
3.184884e-01
3.009359e-01
2.844415e-01
2.689820e-01
2.545388e-01
2.411005e-01
2.286644e-01
2.172402e-01
2.068521e-01
1.975434e-01
1.893808e-01
1.824606e-01
1.769156e-01
1.729252e-01
1.707264e-01
9.927144e-01
9.756787e-01
9.561415e-01
9.342297e-01
9.101392e-01
8.841192e-01
8.564579e-01
8.274670e-01
7.974669e-01
7.667737e-01
7.356880e-01
7.044873e-01
6.734205e-01
6.427050e-01
6.125258e-01
5.830364e-01
5.543604e-01
5.265943e-01
4.998104e-01
4.740599e-01
4.493763e-01
4.257784e-01
4.032733e-01
3.818589e-01
3.615264e-01
3.422630e-01
3.240535e-01
3.068827e-01
2.907376e-01
2.756091e-01
2.614946e-01
2.484002e-01
2.363441e-01
2.253594e-01
2.154988e-01
2.068393e-01
1.994885e-01
1.935929e-01
1.893472e-01
1.870067e-01
9.933876e-01
9.779162e-01
9.601412e-01
9.401492e-01
9.180873e-01
8.941513e-01
8.685754e-01
8.416198e-01
8.135589e-01
7.846703e-01
7.552248e-01
7.254788e-01
6.956683e-01
6.660056e-01
6.366771e-01
6.078425e-01
5.796358e-01
5.521667e-01
5.255222e-01
4.997697e-01
4.749589e-01
4.511248e-01
4.282900e-01
4.064672e-01
3.856617e-01
3.658736e-01
3.470999e-01
3.293367e-01
3.125813e-01
2.968345e-01
2.821031e-01
2.684024e-01
2.557596e-01
2.442173e-01
2.338378e-01
2.247088e-01
2.169499e-01
2.107209e-01
2.062318e-01
2.037562e-01
9.939815e-01
9.798919e-01
9.636786e-01
9.453974e-01
9.251566e-01
9.031087e-01
8.794425e-01
8.543741e-01
8.281369e-01
8.009727e-01
7.731229e-01
7.448215e-01
7.162890e-01
6.877287e-01
6.593237e-01
6.312357e-01
6.036043e-01
5.765481e-01
5.501654e-01
5.245359e-01
4.997230e-01
4.757753e-01
4.527293e-01
4.306113e-01
4.094394e-01
3.892262e-01
3.699803e-01
3.517090e-01
3.344200e-01
3.181242e-01
3.028379e-01
2.885860e-01
2.754051e-01
2.633474e-01
2.524854e-01
2.429177e-01
2.347758e-01
2.282329e-01
2.235143e-01
2.209111e-01
9.945078e-01
9.816440e-01
9.668203e-01
9.500686e-01
9.314663e-01
9.111308e-01
8.892131e-01
8.658913e-01
8.413629e-01
8.158370e-01
7.895268e-01
7.626437e-01
7.353912e-01
7.079610e-01
6.805299e-01
6.532575e-01
6.262858e-01
5.997383e-01
5.737212e-01
5.483237e-01
5.236198e-01
4.996698e-01
4.765219e-01
4.542145e-01
4.327776e-01
4.122351e-01
3.926069e-01
3.739108e-01
3.561651e-01
3.393904e-01
3.236129e-01
3.088670e-01
2.951989e-01
2.826707e-01
2.713652e-01
2.613920e-01
2.528944e-01
2.460591e-01
2.411261e-01
2.384035e-01
9.949760e-01
9.832039e-01
9.696210e-01
9.542406e-01
9.371158e-01
9.183352e-01
8.980184e-01
8.763113e-01
8.533796e-01
8.294030e-01
8.045686e-01
7.790655e-01
7.530796e-01
7.267895e-01
7.003633e-01
6.739562e-01
6.477090e-01
6.217476e-01
5.961828e-01
5.711106e-01
5.466131e-01
5.227601e-01
4.996097e-01
4.772107e-01
4.556035e-01
4.348228e-01
4.148986e-01
3.958591e-01
3.777322e-01
3.605486e-01
3.443440e-01
3.291623e-01
3.150594e-01
3.021073e-01
2.903990e-01
2.800553e-01
2.712312e-01
2.641264e-01
2.589954e-01
2.561624e-01
9.953942e-01
9.845975e-01
9.721259e-01
9.579782e-01
9.421883e-01
9.248213e-01
9.059706e-01
8.857547e-01
8.643117e-01
8.417950e-01
8.183677e-01
7.941977e-01
7.694532e-01
7.442990e-01
7.188930e-01
6.933837e-01
6.679090e-01
6.425942e-01
6.175524e-01
5.928839e-01
5.686769e-01
5.450083e-01
5.219443e-01
4.995426e-01
4.778529e-01
4.569190e-01
4.367808e-01
4.174757e-01
3.990412e-01
3.815173e-01
3.649490e-01
3.493898e-01
3.349050e-01
3.215764e-01
3.095074e-01
2.988293e-01
2.897091e-01
2.823588e-01
2.770469e-01
2.741129e-01
9.957686e-01
9.858462e-01
9.743726e-01
9.613357e-01
9.467540e-01
9.306734e-01
9.131657e-01
8.943260e-01
8.742686e-01
8.531236e-01
8.310320e-01
8.081420e-01
7.846047e-01
7.605707e-01
7.361868e-01
7.115937e-01
6.869243e-01
6.623016e-01
6.378389e-01
6.136387e-01
5.897932e-01
5.663845e-01
5.434854e-01
5.211608e-01
4.994682e-01
4.784599e-01
4.581842e-01
4.386872e-01
4.200154e-01
4.022175e-01
3.853476e-01
3.694682e-01
3.546541e-01
3.409966e-01
3.286091e-01
3.176336e-01
3.082482e-01
3.006770e-01
2.952019e-01
2.921765e-01
9.961049e-01
9.869680e-01
9.763927e-01
9.643587e-01
9.508721e-01
9.359632e-01
9.196860e-01
9.021155e-01
8.833458e-01
8.634860e-01
8.426577e-01
8.209905e-01
7.986193e-01
7.756806e-01
7.523100e-01
7.286392e-01
7.047949e-01
6.808965e-01
6.570556e-01
6.333752e-01
6.099498e-01
5.868651e-01
5.641989e-01
5.420217e-01
5.203978e-01
4.993866e-01
4.790438e-01
4.594237e-01
4.405808e-01
4.225720e-01
4.054602e-01
3.893165e-01
3.742245e-01
3.602851e-01
3.476212e-01
3.363849e-01
3.267654e-01
3.189983e-01
3.133778e-01
3.102709e-01
9.964074e-01
9.879778e-01
9.782127e-01
9.670856e-01
9.545926e-01
9.407517e-01
9.256018e-01
9.092012e-01
8.916262e-01
8.729680e-01
8.533303e-01
8.328260e-01
8.115747e-01
7.896994e-01
7.673239e-01
7.445711e-01
7.215604e-01
6.984063e-01
6.752177e-01
6.520966e-01
6.291382e-01
6.064306e-01
5.840548e-01
5.620860e-01
5.405938e-01
5.196436e-01
4.992979e-01
4.796177e-01
4.606651e-01
4.425049e-01
4.252076e-01
4.088528e-01
3.935327e-01
3.793568e-01
3.664576e-01
3.549969e-01
3.451741e-01
3.372358e-01
3.314876e-01
3.283090e-01
9.966801e-01
9.888882e-01
9.798549e-01
9.695486e-01
9.579580e-01
9.450907e-01
9.309733e-01
9.156501e-01
8.991819e-01
8.816443e-01
8.631251e-01
8.437222e-01
8.235406e-01
8.026906e-01
7.812849e-01
7.594367e-01
7.372579e-01
7.148576e-01
6.923407e-01
6.698072e-01
6.473518e-01
6.250635e-01
6.030257e-01
5.813167e-01
5.600105e-01
5.391774e-01
5.188856e-01
4.992024e-01
4.801963e-01
4.619394e-01
4.445094e-01
4.279937e-01
4.124925e-01
3.981239e-01
3.850290e-01
3.733789e-01
3.633827e-01
3.552972e-01
3.494389e-01
3.461981e-01
9.969262e-01
9.897099e-01
9.813377e-01
9.717748e-01
9.610038e-01
9.490241e-01
9.358517e-01
9.215193e-01
9.060746e-01
8.895794e-01
8.721075e-01
8.537430e-01
8.345780e-01
8.147106e-01
7.942427e-01
7.732781e-01
7.519210e-01
7.302742e-01
7.084382e-01
6.865101e-01
6.645831e-01
6.427462e-01
6.210839e-01
5.996768e-01
5.786021e-01
5.579342e-01
5.377459e-01
5.181099e-01
4.991008e-01
4.807967e-01
4.632824e-01
4.466523e-01
4.310140e-01
4.164936e-01
4.032405e-01
3.914345e-01
3.812936e-01
3.730841e-01
3.671324e-01
3.638389e-01
9.971481e-01
9.904514e-01
9.826768e-01
9.737871e-01
9.637600e-01
9.525884e-01
9.402800e-01
9.268571e-01
9.123565e-01
8.968280e-01
8.803331e-01
8.629435e-01
8.447394e-01
8.258077e-01
8.062400e-01
7.861310e-01
7.655771e-01
7.446748e-01
7.235195e-01
7.022049e-01
6.808218e-01
6.594584e-01
6.381995e-01
6.171271e-01
5.963205e-01
5.758574e-01
5.558146e-01
5.362693e-01
5.173011e-01
4.989940e-01
4.814388e-01
4.647363e-01
4.490014e-01
4.343671e-01
4.209908e-01
4.090600e-01
3.988015e-01
3.904900e-01
3.844608e-01
3.811233e-01
9.973482e-01
9.911200e-01
9.838849e-01
9.756038e-01
9.662511e-01
9.558141e-01
9.442934e-01
9.317033e-01
9.180708e-01
9.034353e-01
8.878477e-01
8.713686e-01
8.540675e-01
8.360209e-01
8.173107e-01
7.980230e-01
7.782466e-01
7.580714e-01
7.375878e-01
7.168853e-01
6.960521e-01
6.751747e-01
6.543375e-01
6.336231e-01
6.131124e-01
5.928854e-01
5.730220e-01
5.536034e-01
5.347136e-01
5.164414e-01
4.988832e-01
4.821459e-01
4.663503e-01
4.516366e-01
4.381688e-01
4.261423e-01
4.157910e-01
4.073979e-01
4.013060e-01
3.979328e-01
9.975282e-01
9.917215e-01
9.849721e-01
9.772400e-01
9.684967e-01
9.587252e-01
9.479204e-01
9.360896e-01
9.232517e-01
9.094372e-01
8.946875e-01
8.790535e-01
8.625950e-01
8.453791e-01
8.274788e-01
8.089721e-01
7.899403e-01
7.704671e-01
7.506373e-01
7.305365e-01
7.102496e-01
6.898612e-01
6.694546e-01
6.491123e-01
6.289161e-01
6.089478e-01
5.892897e-01
5.700262e-01
5.512450e-01
5.330393e-01
5.155103e-01
4.987701e-01
4.829456e-01
4.681826e-01
4.546519e-01
4.425553e-01
4.321339e-01
4.236777e-01
4.175368e-01
4.141353e-01
9.976893e-01
9.922601e-01
9.859463e-01
9.787069e-01
9.705116e-01
9.613399e-01
9.511822e-01
9.400397e-01
9.279244e-01
9.148595e-01
9.008778e-01
8.860220e-01
8.703431e-01
8.538996e-01
8.367566e-01
8.189844e-01
8.006572e-01
7.818528e-01
7.626507e-01
7.431321e-01
7.233787e-01
7.034726e-01
6.834958e-01
6.635302e-01
6.436580e-01
6.239621e-01
6.045266e-01
5.854386e-01
5.667888e-01
5.486742e-01
5.312004e-01
5.144839e-01
4.986568e-01
4.838704e-01
4.703013e-01
4.581573e-01
4.476858e-01
4.391829e-01
4.330050e-01
4.295821e-01
9.978326e-01
9.927391e-01
9.868127e-01
9.800124e-01
9.723061e-01
9.636707e-01
9.540928e-01
9.435687e-01
9.321048e-01
9.197175e-01
9.064328e-01
8.922858e-01
8.773199e-01
8.615862e-01
8.451423e-01
8.280515e-01
8.103817e-01
7.922047e-01
7.735953e-01
7.546302e-01
7.353878e-01
7.159477e-01
6.963901e-01
6.767961e-01
6.572478e-01
6.378287e-01
6.186245e-01
5.997239e-01
5.812206e-01
5.632147e-01
5.458152e-01
5.291429e-01
5.133343e-01
4.985457e-01
4.849586e-01
4.727864e-01
4.622817e-01
4.537463e-01
4.475418e-01
4.441033e-01
9.979584e-01
9.931600e-01
9.875744e-01
9.811605e-01
9.738853e-01
9.657235e-01
9.566585e-01
9.466828e-01
9.357980e-01
9.240149e-01
9.113536e-01
8.978426e-01
8.835189e-01
8.684268e-01
8.526174e-01
8.361477e-01
8.190799e-01
8.014805e-01
7.834194e-01
7.649694e-01
7.462055e-01
7.272047e-01
7.080455e-01
6.888078e-01
6.695734e-01
6.504261e-01
6.314524e-01
6.127427e-01
5.943928e-01
5.765053e-01
5.591924e-01
5.425785e-01
5.268039e-01
5.120291e-01
4.984401e-01
4.862549e-01
4.757310e-01
4.671748e-01
4.609526e-01
4.575034e-01
9.980670e-01
9.935230e-01
9.882315e-01
9.821514e-01
9.752489e-01
9.674972e-01
9.588772e-01
9.493782e-01
9.389977e-01
9.277422e-01
9.156265e-01
9.026739e-01
8.889156e-01
8.743901e-01
8.591431e-01
8.432260e-01
8.266958e-01
8.096141e-01
7.920468e-01
7.740629e-01
7.557342e-01
7.371353e-01
7.183428e-01
6.994355e-01
6.804945e-01
6.616037e-01
6.428502e-01
6.243257e-01
6.061274e-01
5.883603e-01
5.711391e-01
5.545911e-01
5.388600e-01
5.241098e-01
5.105303e-01
4.983436e-01
4.878112e-01
4.792435e-01
4.730104e-01
4.695545e-01
9.981577e-01
9.938266e-01
9.887811e-01
9.829806e-01
9.763905e-01
9.689829e-01
9.607369e-01
9.516390e-01
9.416838e-01
9.308740e-01
9.192202e-01
9.067414e-01
8.934640e-01
8.794219e-01
8.646558e-01
8.492126e-01
8.331449e-01
8.165104e-01
7.993709e-01
7.817923e-01
7.638437e-01
7.455974e-01
7.271282e-01
7.085137e-01
6.898346e-01
6.711743e-01
6.526206e-01
6.342659e-01
6.162087e-01
5.985557e-01
5.814237e-01
5.649424e-01
5.492581e-01
5.345379e-01
5.209748e-01
5.087940e-01
4.982605e-01
4.896879e-01
4.834492e-01
4.799895e-01
9.982297e-01
9.940673e-01
9.892170e-01
9.836383e-01
9.772963e-01
9.701623e-01
9.622138e-01
9.534356e-01
9.438198e-01
9.333660e-01
9.220821e-01
9.099831e-01
8.970921e-01
8.834392e-01
8.690611e-01
8.540012e-01
8.383085e-01
8.220373e-01
8.052464e-01
7.879991e-01
7.703622e-01
7.524060e-01
7.342039e-01
7.158324e-01
6.973714e-01
6.789045e-01
6.605193e-01
6.423090e-01
6.243730e-01
6.068193e-01
5.897662e-01
5.733453e-01
5.577051e-01
5.430150e-01
5.294705e-01
5.172993e-01
5.067690e-01
4.981958e-01
4.919549e-01
4.884935e-01
9.982811e-01
9.942393e-01
9.895285e-01
9.841083e-01
9.779438e-01
9.710056e-01
9.632703e-01
9.547213e-01
9.453489e-01
9.351511e-01
9.241331e-01
9.123079e-01
8.996956e-01