# vtk DataFile Version 3.0
13.TVD_MUSCL scheme
ASCII
DATASET STRUCTURED_GRID
DIMENSIONS 81 81 1
POINTS 6561 double
0.000000e+00 0.000000e+00 0.0
1.250000e-02 0.000000e+00 0.0
2.500000e-02 0.000000e+00 0.0
3.750000e-02 0.000000e+00 0.0
5.000000e-02 0.000000e+00 0.0
6.250000e-02 0.000000e+00 0.0
7.500000e-02 0.000000e+00 0.0
8.750000e-02 0.000000e+00 0.0
1.000000e-01 0.000000e+00 0.0
1.125000e-01 0.000000e+00 0.0
1.250000e-01 0.000000e+00 0.0
1.375000e-01 0.000000e+00 0.0
1.500000e-01 0.000000e+00 0.0
1.625000e-01 0.000000e+00 0.0
1.750000e-01 0.000000e+00 0.0
1.875000e-01 0.000000e+00 0.0
2.000000e-01 0.000000e+00 0.0
2.125000e-01 0.000000e+00 0.0
2.250000e-01 0.000000e+00 0.0
2.375000e-01 0.000000e+00 0.0
2.500000e-01 0.000000e+00 0.0
2.625000e-01 0.000000e+00 0.0
2.750000e-01 0.000000e+00 0.0
2.875000e-01 0.000000e+00 0.0
3.000000e-01 0.000000e+00 0.0
3.125000e-01 0.000000e+00 0.0
3.250000e-01 0.000000e+00 0.0
3.375000e-01 0.000000e+00 0.0
3.500000e-01 0.000000e+00 0.0
3.625000e-01 0.000000e+00 0.0
3.750000e-01 0.000000e+00 0.0
3.875000e-01 0.000000e+00 0.0
4.000000e-01 0.000000e+00 0.0
4.125000e-01 0.000000e+00 0.0
4.250000e-01 0.000000e+00 0.0
4.375000e-01 0.000000e+00 0.0
4.500000e-01 0.000000e+00 0.0
4.625000e-01 0.000000e+00 0.0
4.750000e-01 0.000000e+00 0.0
4.875000e-01 0.000000e+00 0.0
5.000000e-01 0.000000e+00 0.0
5.125000e-01 0.000000e+00 0.0
5.250000e-01 0.000000e+00 0.0
5.375000e-01 0.000000e+00 0.0
5.500000e-01 0.000000e+00 0.0
5.625000e-01 0.000000e+00 0.0
5.750000e-01 0.000000e+00 0.0
5.875000e-01 0.000000e+00 0.0
6.000000e-01 0.000000e+00 0.0
6.125000e-01 0.000000e+00 0.0
6.250000e-01 0.000000e+00 0.0
6.375000e-01 0.000000e+00 0.0
6.500000e-01 0.000000e+00 0.0
6.625000e-01 0.000000e+00 0.0
6.750000e-01 0.000000e+00 0.0
6.875000e-01 0.000000e+00 0.0
7.000000e-01 0.000000e+00 0.0
7.125000e-01 0.000000e+00 0.0
7.250000e-01 0.000000e+00 0.0
7.375000e-01 0.000000e+00 0.0
7.500000e-01 0.000000e+00 0.0
7.625000e-01 0.000000e+00 0.0
7.750000e-01 0.000000e+00 0.0
7.875000e-01 0.000000e+00 0.0
8.000000e-01 0.000000e+00 0.0
8.125000e-01 0.000000e+00 0.0
8.250000e-01 0.000000e+00 0.0
8.375000e-01 0.000000e+00 0.0
8.500000e-01 0.000000e+00 0.0
8.625000e-01 0.000000e+00 0.0
8.750000e-01 0.000000e+00 0.0
8.875000e-01 0.000000e+00 0.0
9.000000e-01 0.000000e+00 0.0
9.125000e-01 0.000000e+00 0.0
9.250000e-01 0.000000e+00 0.0
9.375000e-01 0.000000e+00 0.0
9.500000e-01 0.000000e+00 0.0
9.625000e-01 0.000000e+00 0.0
9.750000e-01 0.000000e+00 0.0
9.875000e-01 0.000000e+00 0.0
1.000000e+00 0.000000e+00 0.0
0.000000e+00 1.250000e-02 0.0
1.250000e-02 1.250000e-02 0.0
2.500000e-02 1.250000e-02 0.0
3.750000e-02 1.250000e-02 0.0
5.000000e-02 1.250000e-02 0.0
6.250000e-02 1.250000e-02 0.0
7.500000e-02 1.250000e-02 0.0
8.750000e-02 1.250000e-02 0.0
1.000000e-01 1.250000e-02 0.0
1.125000e-01 1.250000e-02 0.0
1.250000e-01 1.250000e-02 0.0
1.375000e-01 1.250000e-02 0.0
1.500000e-01 1.250000e-02 0.0
1.625000e-01 1.250000e-02 0.0
1.750000e-01 1.250000e-02 0.0
1.875000e-01 1.250000e-02 0.0
2.000000e-01 1.250000e-02 0.0
2.125000e-01 1.250000e-02 0.0
2.250000e-01 1.250000e-02 0.0
2.375000e-01 1.250000e-02 0.0
2.500000e-01 1.250000e-02 0.0
2.625000e-01 1.250000e-02 0.0
2.750000e-01 1.250000e-02 0.0
2.875000e-01 1.250000e-02 0.0
3.000000e-01 1.250000e-02 0.0
3.125000e-01 1.250000e-02 0.0
3.250000e-01 1.250000e-02 0.0
3.375000e-01 1.250000e-02 0.0
3.500000e-01 1.250000e-02 0.0
3.625000e-01 1.250000e-02 0.0
3.750000e-01 1.250000e-02 0.0
3.875000e-01 1.250000e-02 0.0
4.000000e-01 1.250000e-02 0.0
4.125000e-01 1.250000e-02 0.0
4.250000e-01 1.250000e-02 0.0
4.375000e-01 1.250000e-02 0.0
4.500000e-01 1.250000e-02 0.0
4.625000e-01 1.250000e-02 0.0
4.750000e-01 1.250000e-02 0.0
4.875000e-01 1.250000e-02 0.0
5.000000e-01 1.250000e-02 0.0
5.125000e-01 1.250000e-02 0.0
5.250000e-01 1.250000e-02 0.0
5.375000e-01 1.250000e-02 0.0
5.500000e-01 1.250000e-02 0.0
5.625000e-01 1.250000e-02 0.0
5.750000e-01 1.250000e-02 0.0
5.875000e-01 1.250000e-02 0.0
6.000000e-01 1.250000e-02 0.0
6.125000e-01 1.250000e-02 0.0
6.250000e-01 1.250000e-02 0.0
6.375000e-01 1.250000e-02 0.0
6.500000e-01 1.250000e-02 0.0
6.625000e-01 1.250000e-02 0.0
6.750000e-01 1.250000e-02 0.0
6.875000e-01 1.250000e-02 0.0
7.000000e-01 1.250000e-02 0.0
7.125000e-01 1.250000e-02 0.0
7.250000e-01 1.250000e-02 0.0
7.375000e-01 1.250000e-02 0.0
7.500000e-01 1.250000e-02 0.0
7.625000e-01 1.250000e-02 0.0
7.750000e-01 1.250000e-02 0.0
7.875000e-01 1.250000e-02 0.0
8.000000e-01 1.250000e-02 0.0
8.125000e-01 1.250000e-02 0.0
8.250000e-01 1.250000e-02 0.0
8.375000e-01 1.250000e-02 0.0
8.500000e-01 1.250000e-02 0.0
8.625000e-01 1.250000e-02 0.0
8.750000e-01 1.250000e-02 0.0
8.875000e-01 1.250000e-02 0.0
9.000000e-01 1.250000e-02 0.0
9.125000e-01 1.250000e-02 0.0
9.250000e-01 1.250000e-02 0.0
9.375000e-01 1.250000e-02 0.0
9.500000e-01 1.250000e-02 0.0
9.625000e-01 1.250000e-02 0.0
9.750000e-01 1.250000e-02 0.0
9.875000e-01 1.250000e-02 0.0
1.000000e+00 1.250000e-02 0.0
0.000000e+00 2.500000e-02 0.0
1.250000e-02 2.500000e-02 0.0
2.500000e-02 2.500000e-02 0.0
3.750000e-02 2.500000e-02 0.0
5.000000e-02 2.500000e-02 0.0
6.250000e-02 2.500000e-02 0.0
7.500000e-02 2.500000e-02 0.0
8.750000e-02 2.500000e-02 0.0
1.000000e-01 2.500000e-02 0.0
1.125000e-01 2.500000e-02 0.0
1.250000e-01 2.500000e-02 0.0
1.375000e-01 2.500000e-02 0.0
1.500000e-01 2.500000e-02 0.0
1.625000e-01 2.500000e-02 0.0
1.750000e-01 2.500000e-02 0.0
1.875000e-01 2.500000e-02 0.0
2.000000e-01 2.500000e-02 0.0
2.125000e-01 2.500000e-02 0.0
2.250000e-01 2.500000e-02 0.0
2.375000e-01 2.500000e-02 0.0
2.500000e-01 2.500000e-02 0.0
2.625000e-01 2.500000e-02 0.0
2.750000e-01 2.500000e-02 0.0
2.875000e-01 2.500000e-02 0.0
3.000000e-01 2.500000e-02 0.0
3.125000e-01 2.500000e-02 0.0
3.250000e-01 2.500000e-02 0.0
3.375000e-01 2.500000e-02 0.0
3.500000e-01 2.500000e-02 0.0
3.625000e-01 2.500000e-02 0.0
3.750000e-01 2.500000e-02 0.0
3.875000e-01 2.500000e-02 0.0
4.000000e-01 2.500000e-02 0.0
4.125000e-01 2.500000e-02 0.0
4.250000e-01 2.500000e-02 0.0
4.375000e-01 2.500000e-02 0.0
4.500000e-01 2.500000e-02 0.0
4.625000e-01 2.500000e-02 0.0
4.750000e-01 2.500000e-02 0.0
4.875000e-01 2.500000e-02 0.0
5.000000e-01 2.500000e-02 0.0
5.125000e-01 2.500000e-02 0.0
5.250000e-01 2.500000e-02 0.0
5.375000e-01 2.500000e-02 0.0
5.500000e-01 2.500000e-02 0.0
5.625000e-01 2.500000e-02 0.0
5.750000e-01 2.500000e-02 0.0
5.875000e-01 2.500000e-02 0.0
6.000000e-01 2.500000e-02 0.0
6.125000e-01 2.500000e-02 0.0
6.250000e-01 2.500000e-02 0.0
6.375000e-01 2.500000e-02 0.0
6.500000e-01 2.500000e-02 0.0
6.625000e-01 2.500000e-02 0.0
6.750000e-01 2.500000e-02 0.0
6.875000e-01 2.500000e-02 0.0
7.000000e-01 2.500000e-02 0.0
7.125000e-01 2.500000e-02 0.0
7.250000e-01 2.500000e-02 0.0
7.375000e-01 2.500000e-02 0.0
7.500000e-01 2.500000e-02 0.0
7.625000e-01 2.500000e-02 0.0
7.750000e-01 2.500000e-02 0.0
7.875000e-01 2.500000e-02 0.0
8.000000e-01 2.500000e-02 0.0
8.125000e-01 2.500000e-02 0.0
8.250000e-01 2.500000e-02 0.0
8.375000e-01 2.500000e-02 0.0
8.500000e-01 2.500000e-02 0.0
8.625000e-01 2.500000e-02 0.0
8.750000e-01 2.500000e-02 0.0
8.875000e-01 2.500000e-02 0.0
9.000000e-01 2.500000e-02 0.0
9.125000e-01 2.500000e-02 0.0
9.250000e-01 2.500000e-02 0.0
9.375000e-01 2.500000e-02 0.0
9.500000e-01 2.500000e-02 0.0
9.625000e-01 2.500000e-02 0.0
9.750000e-01 2.500000e-02 0.0
9.875000e-01 2.500000e-02 0.0
1.000000e+00 2.500000e-02 0.0
0.000000e+00 3.750000e-02 0.0
1.250000e-02 3.750000e-02 0.0
2.500000e-02 3.750000e-02 0.0
3.750000e-02 3.750000e-02 0.0
5.000000e-02 3.750000e-02 0.0
6.250000e-02 3.750000e-02 0.0
7.500000e-02 3.750000e-02 0.0
8.750000e-02 3.750000e-02 0.0
1.000000e-01 3.750000e-02 0.0
1.125000e-01 3.750000e-02 0.0
1.250000e-01 3.750000e-02 0.0
1.375000e-01 3.750000e-02 0.0
1.500000e-01 3.750000e-02 0.0
1.625000e-01 3.750000e-02 0.0
1.750000e-01 3.750000e-02 0.0
1.875000e-01 3.750000e-02 0.0
2.000000e-01 3.750000e-02 0.0
2.125000e-01 3.750000e-02 0.0
2.250000e-01 3.750000e-02 0.0
2.375000e-01 3.750000e-02 0.0
2.500000e-01 3.750000e-02 0.0
2.625000e-01 3.750000e-02 0.0
2.750000e-01 3.750000e-02 0.0
2.875000e-01 3.750000e-02 0.0
3.000000e-01 3.750000e-02 0.0
3.125000e-01 3.750000e-02 0.0
3.250000e-01 3.750000e-02 0.0
3.375000e-01 3.750000e-02 0.0
3.500000e-01 3.750000e-02 0.0
3.625000e-01 3.750000e-02 0.0
3.750000e-01 3.750000e-02 0.0
3.875000e-01 3.750000e-02 0.0
4.000000e-01 3.750000e-02 0.0
4.125000e-01 3.750000e-02 0.0
4.250000e-01 3.750000e-02 0.0
4.375000e-01 3.750000e-02 0.0
4.500000e-01 3.750000e-02 0.0
4.625000e-01 3.750000e-02 0.0
4.750000e-01 3.750000e-02 0.0
4.875000e-01 3.750000e-02 0.0
5.000000e-01 3.750000e-02 0.0
5.125000e-01 3.750000e-02 0.0
5.250000e-01 3.750000e-02 0.0
5.375000e-01 3.750000e-02 0.0
5.500000e-01 3.750000e-02 0.0
5.625000e-01 3.750000e-02 0.0
5.750000e-01 3.750000e-02 0.0
5.875000e-01 3.750000e-02 0.0
6.000000e-01 3.750000e-02 0.0
6.125000e-01 3.750000e-02 0.0
6.250000e-01 3.750000e-02 0.0
6.375000e-01 3.750000e-02 0.0
6.500000e-01 3.750000e-02 0.0
6.625000e-01 3.750000e-02 0.0
6.750000e-01 3.750000e-02 0.0
6.875000e-01 3.750000e-02 0.0
7.000000e-01 3.750000e-02 0.0
7.125000e-01 3.750000e-02 0.0
7.250000e-01 3.750000e-02 0.0
7.375000e-01 3.750000e-02 0.0
7.500000e-01 3.750000e-02 0.0
7.625000e-01 3.750000e-02 0.0
7.750000e-01 3.750000e-02 0.0
7.875000e-01 3.750000e-02 0.0
8.000000e-01 3.750000e-02 0.0
8.125000e-01 3.750000e-02 0.0
8.250000e-01 3.750000e-02 0.0
8.375000e-01 3.750000e-02 0.0
8.500000e-01 3.750000e-02 0.0
8.625000e-01 3.750000e-02 0.0
8.750000e-01 3.750000e-02 0.0
8.875000e-01 3.750000e-02 0.0
9.000000e-01 3.750000e-02 0.0
9.125000e-01 3.750000e-02 0.0
9.250000e-01 3.750000e-02 0.0
9.375000e-01 3.750000e-02 0.0
9.500000e-01 3.750000e-02 0.0
9.625000e-01 3.750000e-02 0.0
9.750000e-01 3.750000e-02 0.0
9.875000e-01 3.750000e-02 0.0
1.000000e+00 3.750000e-02 0.0
0.000000e+00 5.000000e-02 0.0
1.250000e-02 5.000000e-02 0.0
2.500000e-02 5.000000e-02 0.0
3.750000e-02 5.000000e-02 0.0
5.000000e-02 5.000000e-02 0.0
[...]
CELL_DATA 6400
SCALARS Temperature double 1
LOOKUP_TABLE default
4.999998e-01
2.197646e-01
1.258876e-01
8.568352e-02
6.427207e-02
5.103043e-02
4.201785e-02
3.548262e-02
3.052823e-02
2.664615e-02
2.352550e-02
2.096516e-02
1.882913e-02
1.702208e-02
1.547521e-02
1.413761e-02
1.297077e-02
1.194507e-02
1.103730e-02
1.022906e-02
9.505562e-03
8.854773e-03
8.266821e-03
7.733523e-03
7.248041e-03
6.804619e-03
6.398373e-03
6.025139e-03
5.681341e-03
5.363892e-03
5.070115e-03
4.797676e-03
4.544532e-03
4.308888e-03
4.089158e-03
3.883938e-03
3.691983e-03
3.512179e-03
3.343534e-03
3.185155e-03
3.036242e-03
2.896072e-03
2.763994e-03
2.639418e-03
2.521808e-03
2.410677e-03
2.305584e-03
2.206125e-03
2.111931e-03
2.022666e-03
1.938024e-03
1.857721e-03
1.781502e-03
1.709130e-03
1.640390e-03
1.575084e-03
1.513033e-03
1.454074e-03
1.398058e-03
1.344851e-03
1.294332e-03
1.246396e-03
1.200947e-03
1.157904e-03
1.117200e-03
1.078777e-03
1.042593e-03
1.008618e-03
9.768361e-04
9.472465e-04
9.198633e-04
8.947173e-04
8.718577e-04
8.513531e-04
8.332938e-04
8.177939e-04
8.049944e-04
7.950656e-04
7.882112e-04
7.846724e-04
7.802343e-01
4.999982e-01
3.424727e-01
2.513260e-01
1.947543e-01
1.570748e-01
1.304528e-01
1.107466e-01
9.561897e-02
8.366729e-02
7.400416e-02
6.604242e-02
5.937879e-02
5.372738e-02
4.888004e-02
4.468169e-02
4.101447e-02
3.778723e-02
3.492838e-02
3.238096e-02
3.009903e-02
2.804521e-02
2.618872e-02
2.450402e-02
2.296975e-02
2.156789e-02
2.028315e-02
1.910245e-02
1.801459e-02
1.700985e-02
1.607984e-02
1.521720e-02
1.441552e-02
1.366912e-02
1.297303e-02
1.232281e-02
1.171453e-02
1.114469e-02
1.061016e-02
1.010811e-02
9.636014e-03
9.191601e-03
8.772805e-03
8.377763e-03
8.004782e-03
7.652325e-03
7.318992e-03
7.003508e-03
6.704709e-03
6.421529e-03
6.152997e-03
5.898222e-03
5.656389e-03
5.426751e-03
5.208628e-03
5.001395e-03
4.804483e-03
4.617374e-03
4.439598e-03
4.270732e-03
4.110394e-03
3.958246e-03
3.813989e-03
3.677367e-03
3.548162e-03
3.426197e-03
3.311337e-03
3.203486e-03
3.102596e-03
3.008662e-03
2.921732e-03
2.841903e-03
2.769331e-03
2.704234e-03
2.646900e-03
2.597691e-03
2.557055e-03
2.525533e-03
2.503771e-03
2.492535e-03
8.741105e-01
6.575212e-01
4.999947e-01
3.904975e-01
3.138500e-01
2.587581e-01
2.179083e-01
1.867073e-01
1.622445e-01
1.426298e-01
1.266000e-01
1.132861e-01
1.020740e-01
9.251879e-02
8.429108e-02
7.714228e-02
7.088144e-02
6.535961e-02
6.045897e-02
5.608519e-02
5.216186e-02
4.862647e-02
4.542741e-02
4.252169e-02
3.987325e-02
3.745159e-02
3.523079e-02
3.318864e-02
3.130604e-02
2.956647e-02
2.795555e-02
2.646073e-02
2.507101e-02
2.377670e-02
2.256924e-02
2.144102e-02
2.038530e-02
1.939605e-02
1.846786e-02
1.759589e-02
1.677579e-02
1.600363e-02
1.527585e-02
1.458923e-02
1.394085e-02
1.332806e-02
1.274844e-02
1.219979e-02
1.168008e-02
1.118749e-02
1.072032e-02
1.027704e-02
9.856238e-03
9.456618e-03
9.077000e-03
8.716305e-03
8.373546e-03
8.047826e-03
7.738332e-03
7.444328e-03
7.165153e-03
6.900222e-03
6.649019e-03
6.411097e-03
6.186079e-03
5.973661e-03
5.773606e-03
5.585752e-03
5.410016e-03
5.246392e-03
5.094960e-03
4.955895e-03
4.829469e-03
4.716063e-03
4.616178e-03
4.530447e-03
4.459649e-03
4.404728e-03
4.366812e-03
4.347234e-03
9.143137e-01
7.486651e-01
6.094870e-01
4.999887e-01
4.157119e-01
3.507991e-01
3.002272e-01
2.602097e-01
2.280201e-01
2.017176e-01
1.799142e-01
1.616057e-01
1.460545e-01
1.327104e-01
1.211562e-01
1.110711e-01
1.022051e-01
9.436046e-02
8.737932e-02
8.113409e-02
7.552068e-02
7.045337e-02
6.586099e-02
6.168399e-02
5.787217e-02
5.438296e-02
5.118002e-02
4.823214e-02
4.551241e-02
4.299748e-02
4.066701e-02
3.850319e-02
3.649039e-02
3.461483e-02
3.286428e-02
3.122792e-02
2.969608e-02
2.826015e-02
2.691238e-02
2.564585e-02
2.445428e-02
2.333205e-02
2.227403e-02
2.127560e-02
2.033256e-02
1.944109e-02
1.859769e-02
1.779919e-02
1.704269e-02
1.632552e-02
1.564525e-02
1.499967e-02
1.438673e-02
1.380456e-02
1.325146e-02
1.272585e-02
1.222633e-02
1.175158e-02
1.130044e-02
1.087183e-02
1.046479e-02
1.007849e-02
9.712177e-03
9.365200e-03
9.037017e-03
8.727187e-03
8.435370e-03
8.161334e-03
7.904959e-03
7.666241e-03
7.445301e-03
7.242394e-03
7.057920e-03
6.892439e-03
6.746682e-03
6.621575e-03
6.518257e-03
6.438107e-03
6.382771e-03
6.354196e-03
9.357242e-01
8.052338e-01
6.861294e-01
5.842580e-01
4.999799e-01
4.311713e-01
3.750695e-01
3.290940e-01
2.911025e-01
2.594059e-01
2.327001e-01
2.099844e-01
1.904897e-01
1.736210e-01
1.589141e-01
1.460035e-01
1.345987e-01
1.244666e-01
1.154181e-01
1.072991e-01
9.998233e-02
9.336218e-02
8.735036e-02
8.187250e-02
7.686559e-02
7.227588e-02
6.805732e-02
6.417020e-02
6.058016e-02
5.725728e-02
5.417543e-02
5.131169e-02
4.864587e-02
4.616012e-02
4.383862e-02
4.166730e-02
3.963359e-02
3.772625e-02
3.593520e-02
3.425137e-02
3.266657e-02
3.117341e-02
2.976520e-02
2.843586e-02
2.717988e-02
2.599221e-02
2.486829e-02
2.380392e-02
2.279527e-02
2.183884e-02
2.093144e-02
2.007011e-02
1.925216e-02
1.847514e-02
1.773677e-02
1.703500e-02
1.636794e-02
1.573388e-02
1.513124e-02
1.455863e-02
1.401477e-02
1.349855e-02
1.300898e-02
1.254521e-02
1.210651e-02
1.169230e-02
1.130214e-02
1.093573e-02
1.059290e-02
1.027366e-02
9.978169e-03
9.706784e-03
9.460039e-03
9.238687e-03
9.043709e-03
8.876348e-03
8.738130e-03
8.630902e-03
8.556867e-03
8.518633e-03
9.489648e-01
8.429101e-01
7.412158e-01
6.491628e-01
5.687779e-01
4.999678e-01
4.415983e-01
3.921898e-01
3.502781e-01
3.145641e-01
2.839547e-01
2.575542e-01
2.346373e-01
2.146196e-01
1.970293e-01
1.814851e-01
1.676765e-01
1.553496e-01
1.442955e-01
1.343410e-01
1.253419e-01
1.171771e-01
1.097444e-01
1.029572e-01
9.674143e-02
9.103368e-02
8.577926e-02
8.093080e-02
7.644712e-02
7.229224e-02
6.843461e-02
6.484647e-02
6.150329e-02
5.838334e-02
5.546732e-02
5.273798e-02
5.017993e-02
4.777936e-02
4.552386e-02
4.340224e-02
4.140440e-02
3.952121e-02
3.774437e-02
3.606635e-02
3.448031e-02
3.298000e-02
3.155971e-02
3.021424e-02
2.893881e-02
2.772907e-02
2.658101e-02
2.549096e-02
2.445556e-02
2.347173e-02
2.253663e-02
2.164770e-02
2.080256e-02
1.999906e-02
1.923526e-02
1.850939e-02
1.781986e-02
1.716527e-02
1.654438e-02
1.595612e-02
1.539960e-02
1.487409e-02
1.437903e-02
1.391404e-02
1.347895e-02
1.307376e-02
1.269868e-02
1.235417e-02
1.204092e-02
1.175989e-02
1.151233e-02
1.129983e-02
1.112432e-02
1.098815e-02
1.089413e-02
1.084557e-02
9.579764e-01
8.695288e-01
7.820598e-01
6.997263e-01
6.248684e-01
5.583231e-01
4.999519e-01
4.490984e-01
4.048983e-01
3.664589e-01
3.329483e-01
3.036316e-01
2.778782e-01
2.551558e-01
2.350183e-01
2.170934e-01
2.010706e-01
1.866900e-01
1.737339e-01
1.620189e-01
1.513902e-01
1.417163e-01
1.328850e-01
1.248003e-01
1.173797e-01
1.105518e-01
1.042547e-01
9.843442e-02
9.304395e-02
8.804191e-02
8.339187e-02
7.906167e-02
7.502281e-02
7.124993e-02
6.772043e-02
6.441412e-02
6.131289e-02
5.840045e-02
5.566215e-02
5.308475e-02
5.065629e-02
4.836590e-02
4.620374e-02
4.416082e-02
4.222899e-02
4.040077e-02
3.866936e-02
3.702851e-02
3.547252e-02
3.399614e-02
3.259458e-02
3.126342e-02
2.999862e-02
2.879648e-02
2.765359e-02
2.656683e-02
2.553337e-02
2.455061e-02
2.361620e-02
2.272801e-02
2.188412e-02
2.108285e-02
2.032269e-02
1.960238e-02
1.892082e-02
1.827713e-02
1.767067e-02
1.710098e-02
1.656785e-02
1.607131e-02
1.561162e-02
1.518936e-02
1.480539e-02
1.446087e-02
1.415738e-02
1.389684e-02
1.368164e-02
1.351468e-02
1.339939e-02
1.333983e-02
9.645105e-01
8.892315e-01
8.132546e-01
7.397349e-01
6.708320e-01
6.077165e-01
5.507870e-01
4.999317e-01
4.547480e-01
4.146985e-01
3.792089e-01
3.477230e-01
3.197305e-01
2.947769e-01
2.724654e-01
2.524529e-01
2.344448e-01
2.181886e-01
2.034682e-01
1.900985e-01
1.779204e-01
1.667973e-01
1.566114e-01
1.472604e-01
1.386558e-01
1.307204e-01
1.233868e-01
1.165959e-01
1.102957e-01
1.044403e-01
9.898916e-02
9.390628e-02
8.915962e-02
8.472057e-02
8.056357e-02
7.666567e-02
7.300625e-02
6.956674e-02
6.633035e-02
6.328191e-02
6.040766e-02
5.769509e-02
5.513283e-02
5.271051e-02
5.041868e-02
4.824868e-02
4.619260e-02
4.424319e-02
4.239381e-02
4.063835e-02
3.897120e-02
3.738723e-02
3.588171e-02
3.445030e-02
3.308902e-02
3.179423e-02
3.056259e-02
2.939106e-02
2.827688e-02
2.721757e-02
2.621087e-02
2.525480e-02
2.434762e-02
2.348781e-02
2.267412e-02
2.190552e-02
2.118125e-02
2.050080e-02
1.986393e-02
1.927069e-02
1.872142e-02
1.821682e-02
1.775793e-02
1.734616e-02
1.698339e-02
1.667194e-02
1.641468e-02
1.621507e-02
1.607722e-02
1.600600e-02
9.694637e-01
9.043554e-01
8.377110e-01
7.719151e-01
7.088110e-01
6.496123e-01
5.949678e-01
5.450924e-01
4.999067e-01
4.591533e-01
4.224819e-01
3.895077e-01
3.598457e-01
3.331316e-01
3.090311e-01
2.872439e-01
2.675035e-01
2.495751e-01
2.332533e-01
2.183586e-01
2.047340e-01
1.922426e-01
1.807648e-01
1.701957e-01
1.604434e-01
1.514271e-01
1.430757e-01
1.353263e-01
1.281232e-01
1.214172e-01
1.151642e-01
1.093250e-01
1.038648e-01
9.875195e-02
9.395841e-02
8.945880e-02
8.523024e-02
8.125205e-02
7.750551e-02
7.397365e-02
7.064103e-02
6.749361e-02
6.451857e-02
6.170423e-02
5.903987e-02
5.651572e-02
5.412279e-02
5.185286e-02
4.969836e-02
4.765234e-02
4.570842e-02
4.386072e-02
4.210385e-02
4.043285e-02
3.884316e-02
3.733061e-02
3.589138e-02
3.452198e-02
3.321925e-02
3.198033e-02
3.080265e-02
2.968393e-02
2.862216e-02
2.761563e-02
2.666289e-02
2.576278e-02
2.491444e-02
2.411728e-02
2.337107e-02
2.267587e-02
2.203213e-02
2.144066e-02
2.090271e-02
2.041996e-02
1.999460e-02
1.962941e-02
1.932773e-02
1.909363e-02
1.893195e-02
1.884840e-02
9.733446e-01
9.163033e-01
8.573190e-01
7.982079e-01
7.404946e-01
6.853098e-01
6.333870e-01
5.851178e-01
5.406320e-01
4.998765e-01
4.626811e-01
4.288097e-01
3.979956e-01
3.699651e-01
3.444520e-01
3.212057e-01
2.999958e-01
2.806130e-01
2.628692e-01
2.465965e-01
2.316454e-01
2.178832e-01
2.051920e-01
1.934677e-01
1.826176e-01
1.725594e-01
1.632202e-01
1.545348e-01
1.464452e-01
1.388996e-01
1.318516e-01
1.252595e-01
1.190860e-01
1.132974e-01
1.078634e-01
1.027565e-01
9.795194e-02
9.342717e-02
8.916177e-02
8.513713e-02
8.133629e-02
7.774380e-02
7.434552e-02
7.112850e-02
6.808091e-02
6.519186e-02
6.245137e-02
5.985027e-02
5.738012e-02
5.503315e-02
5.280223e-02
5.068078e-02
4.866273e-02
4.674253e-02
4.491505e-02
4.317560e-02
4.151989e-02
3.994399e-02
3.844434e-02
3.701771e-02
3.566121e-02
3.437228e-02
3.314866e-02
3.198841e-02
3.088992e-02
2.985189e-02
2.887336e-02
2.795371e-02
2.709268e-02
2.629039e-02
2.554737e-02
2.486460e-02
2.424352e-02
2.368612e-02
2.319495e-02
2.277320e-02
2.242477e-02
2.215438e-02
2.196762e-02
2.187108e-02
9.764640e-01
9.259624e-01
8.733419e-01
8.200011e-01
7.671868e-01
7.159021e-01
6.668766e-01
6.205824e-01
5.772741e-01
5.370382e-01
4.998405e-01
4.655663e-01
4.340520e-01
4.051081e-01
3.785352e-01
3.541352e-01
3.317173e-01
3.111022e-01
2.921242e-01
2.746313e-01
2.584855e-01
2.435621e-01
2.297486e-01
2.169440e-01
2.050573e-01
1.940070e-01
1.837200e-01
1.741304e-01
1.651792e-01
1.568131e-01
1.489841e-01
1.416490e-01
1.347687e-01
1.283078e-01
1.222343e-01
1.165191e-01
1.111358e-01
1.060603e-01
1.012707e-01
9.674701e-02
9.247090e-02
8.842567e-02
8.459598e-02
8.096776e-02
7.752810e-02
7.426513e-02
7.116793e-02
6.822644e-02
6.543139e-02
6.277427e-02
6.024719e-02
5.784290e-02
5.555472e-02
5.337649e-02
5.130256e-02
4.932774e-02
4.744724e-02
4.565674e-02
4.395227e-02
4.233026e-02
4.078751e-02
3.932115e-02
3.792871e-02
3.660804e-02
3.535736e-02
3.417523e-02
3.306063e-02
3.201287e-02
3.103171e-02
3.011733e-02
2.927036e-02
2.849196e-02
2.778380e-02
2.714816e-02
2.658799e-02
2.610694e-02
2.570950e-02
2.540104e-02
2.518795e-02
2.507779e-02
9.790230e-01
9.339200e-01
8.866485e-01
8.382991e-01
7.898884e-01
7.422848e-01
6.961715e-01
6.520423e-01
6.102180e-01
5.708747e-01
5.340750e-01
4.997983e-01
4.679662e-01
4.384630e-01
4.111511e-01
3.858828e-01
3.625080e-01
3.408794e-01
3.208561e-01
3.023053e-01
2.851036e-01
2.691370e-01
2.543010e-01
2.405000e-01
2.276472e-01
2.156636e-01
2.044775e-01
1.940237e-01
1.842434e-01
1.750829e-01
1.664937e-01
1.584316e-01
1.508566e-01
1.437322e-01
1.370251e-01
1.307050e-01
1.247442e-01
1.191175e-01
1.138018e-01
1.087758e-01
1.040202e-01
9.951717e-02
9.525026e-02
9.120446e-02
8.736588e-02
8.372177e-02
8.026035e-02
7.697074e-02
7.384293e-02
7.086766e-02
6.803639e-02
6.534123e-02
6.277490e-02
6.033069e-02
5.800243e-02
5.578444e-02
5.367151e-02
5.165889e-02
4.974225e-02
4.791767e-02
4.618166e-02
4.453108e-02
4.296322e-02
4.147575e-02
4.006672e-02
3.873459e-02
3.747824e-02
3.629698e-02
3.519058e-02
3.415928e-02
3.320385e-02
3.232562e-02
3.152652e-02
3.080917e-02
3.017691e-02
2.963390e-02
2.918522e-02
2.883696e-02
2.859636e-02
2.847193e-02
9.811577e-01
9.405793e-01
8.978531e-01
8.538394e-01
8.093686e-01
7.651833e-01
7.219024e-01
6.800081e-01
6.398487e-01
6.016527e-01
5.655483e-01
5.315843e-01
4.997496e-01
4.699900e-01
4.422225e-01
4.163458e-01
3.922486e-01
3.698156e-01
3.489318e-01
3.294852e-01
3.113687e-01
2.944812e-01
2.787280e-01
2.640213e-01
2.502798e-01
2.374285e-01
2.253989e-01
2.141278e-01
2.035575e-01
1.936352e-01
1.843125e-01
1.755452e-01
1.672929e-01
1.595185e-01
1.521882e-01
1.452708e-01
1.387378e-01
1.325631e-01
1.267226e-01
1.211943e-01
1.159578e-01
1.109944e-01
1.062869e-01
1.018193e-01
9.757700e-02
9.354637e-02
8.971491e-02
8.607101e-02
8.260398e-02
7.930390e-02
7.616160e-02
7.316862e-02
7.031713e-02
6.759989e-02
6.501026e-02
6.254209e-02
6.018977e-02
5.794816e-02
5.581257e-02
5.377878e-02
5.184298e-02
5.000182e-02
4.825235e-02
4.659205e-02
4.501885e-02
4.353111e-02
4.212763e-02
4.080773e-02
3.957119e-02
3.841834e-02
3.735011e-02
3.636802e-02
3.547429e-02
3.467186e-02
3.396453e-02
3.335698e-02
3.285491e-02
3.246518e-02
3.219588e-02
3.205658e-02
9.829633e-01
9.462263e-01
9.074007e-01
8.671723e-01
8.262224e-01
7.851821e-01
7.446017e-01
7.049341e-01
6.665305e-01
6.296461e-01
5.944501e-01
5.610402e-01
5.294563e-01
4.996939e-01
4.717159e-01
4.454618e-01
4.208561e-01
3.978139e-01
3.762458e-01
3.560609e-01
3.371694e-01
3.194843e-01
3.029222e-01
2.874041e-01
2.728558e-01
2.592079e-01
2.463960e-01
2.343599e-01
2.230444e-01
2.123981e-01
2.023739e-01
1.929281e-01
1.840207e-01
1.756145e-01
1.676756e-01
1.601724e-01
1.530762e-01
1.463601e-01
1.399995e-01
1.339717e-01
1.282557e-01
1.228321e-01
1.176829e-01
1.127916e-01
1.081427e-01
1.037220e-01
9.951643e-02
9.551367e-02
9.170242e-02
8.807220e-02
8.461329e-02
8.131669e-02
7.817407e-02
7.517773e-02
7.232056e-02
6.959602e-02
6.699810e-02
6.452131e-02
6.216063e-02
5.991154e-02
5.776998e-02
5.573235e-02
5.379551e-02
5.195678e-02
5.021397e-02
4.856533e-02
4.700965e-02
4.554623e-02
4.417490e-02
4.289612e-02
4.171095e-02
4.062114e-02
3.962922e-02
3.873850e-02
3.795323e-02
3.727866e-02
3.672114e-02
3.628831e-02
3.598921e-02
3.583443e-02
9.845088e-01
9.510691e-01
9.156205e-01
8.787151e-01
8.409141e-01
8.027530e-01
7.647155e-01
7.272173e-01
6.905980e-01
6.551212e-01
6.209796e-01
5.883034e-01
5.571695e-01
5.276120e-01
4.996310e-01
4.732011e-01
4.482783e-01
4.248056e-01
4.027177e-01
3.819445e-01
3.624135e-01
3.440523e-01
3.267895e-01
3.105561e-01
2.952857e-01
2.809157e-01
2.673864e-01
2.546420e-01
2.426303e-01
2.313026e-01
2.206132e-01
2.105200e-01
2.009838e-01
1.919680e-01
1.834390e-01
1.753655e-01
1.677184e-01
1.604708e-01
1.535978e-01
1.470763e-01
1.408848e-01
1.350036e-01
1.294140e-01
1.240991e-01
1.190428e-01
1.142305e-01
1.096484e-01
1.052838e-01
1.011249e-01
9.716058e-02
9.338073e-02
8.977589e-02
8.633726e-02
8.305673e-02
7.992680e-02
7.694055e-02
7.409162e-02
7.137418e-02
6.878294e-02
6.631309e-02
6.396034e-02
6.172088e-02
5.959140e-02
5.756907e-02
5.565159e-02
5.383716e-02
5.212453e-02
5.051302e-02
4.900254e-02
4.759367e-02
4.628764e-02
4.508648e-02
4.399299e-02
4.301092e-02
4.214499e-02
4.140102e-02
4.078608e-02
4.030862e-02
3.997862e-02
3.980781e-02
9.858449e-01
9.552629e-01
9.227613e-01
8.887884e-01
8.538090e-01
8.182774e-01
7.826162e-01
7.472009e-01
7.123514e-01
6.783286e-01
6.453355e-01
6.135220e-01
5.829909e-01
5.538048e-01
5.259936e-01
4.995606e-01
4.744889e-01
4.507463e-01
4.282897e-01
4.070684e-01
3.870268e-01
3.681069e-01
3.502498e-01
3.333966e-01
3.174898e-01
3.024737e-01
2.882946e-01
2.749016e-01
2.622463e-01
2.502829e-01
2.389684e-01
2.282626e-01
2.181275e-01
2.085280e-01
1.994309e-01
1.908055e-01
1.826231e-01
1.748570e-01
1.674822e-01
1.604754e-01
1.538152e-01
1.474813e-01
1.414549e-01
1.357187e-01
1.302563e-01
1.250525e-01
1.200933e-01
1.153655e-01
1.108568e-01
1.065559e-01
1.024521e-01
9.853558e-02
9.479719e-02
9.122844e-02
8.782148e-02
8.456906e-02
8.146451e-02
7.850173e-02
7.567515e-02
7.297974e-02
7.041098e-02
6.796488e-02
6.563799e-02
6.342735e-02
6.133059e-02
5.934585e-02
5.747188e-02
5.570805e-02
5.405436e-02
5.251152e-02
5.108098e-02
4.976502e-02
4.856681e-02
4.749050e-02
4.654132e-02
4.572572e-02
4.505149e-02
4.452792e-02
4.416601e-02
4.397862e-02
9.870103e-01
9.589254e-01
9.290139e-01
8.976425e-01
8.651979e-01
8.320659e-01
7.986143e-01
7.651796e-01
7.320575e-01
6.994989e-01
6.677083e-01
6.368461e-01
6.070316e-01
5.783480e-01
5.508477e-01
5.245573e-01
4.994824e-01
4.756123e-01
4.529234e-01
4.313830e-01
4.109515e-01
3.915847e-01
3.732358e-01
3.558565e-01
3.393981e-01
3.238125e-01
3.090524e-01
2.950722e-01
2.818279e-01
2.692774e-01
2.573807e-01
2.460999e-01
2.353991e-01
2.252445e-01
2.156043e-01
2.064487e-01
1.977495e-01
1.894805e-01
1.816171e-01
1.741362e-01
1.670162e-01
1.602369e-01
1.537795e-01
1.476263e-01
1.417609e-01
1.361677e-01
1.308325e-01
1.257417e-01
1.208828e-01
1.162440e-01
1.118146e-01
1.075842e-01
1.035434e-01
9.968342e-02
9.599614e-02
9.247401e-02
8.911010e-02
8.589807e-02
8.283211e-02
7.990699e-02
7.711802e-02
7.446106e-02
7.193253e-02
6.952938e-02
6.724917e-02
6.509003e-02
6.305074e-02
6.113071e-02
5.933006e-02
5.764967e-02
5.609122e-02
5.465728e-02
5.335139e-02
5.217813e-02
5.114330e-02
5.025397e-02
4.951869e-02
4.894764e-02
4.855284e-02
4.834836e-02
9.880345e-01
9.621479e-01
9.345275e-01
9.054751e-01
8.753138e-01
8.443723e-01
8.129698e-01
7.814059e-01
7.499509e-01
7.188414e-01
6.882777e-01
6.584233e-01
6.294072e-01
6.013267e-01
5.742507e-01
5.482237e-01
5.232699e-01
4.993964e-01
4.765970e-01
4.548548e-01
4.341447e-01
4.144358e-01
3.956927e-01
3.778775e-01
3.609504e-01
3.448710e-01
3.295987e-01
3.150935e-01
3.013162e-01
2.882289e-01
2.757949e-01
2.639791e-01
2.527480e-01
2.420698e-01
2.319140e-01
2.222522e-01
2.130573e-01
2.043036e-01
1.959673e-01
1.880255e-01
1.804570e-01
1.732418e-01
1.663612e-01
1.597973e-01
1.535338e-01
1.475550e-01
1.418465e-01
1.363945e-01
1.311863e-01
1.262100e-01
1.214544e-01
1.169091e-01
1.125645e-01
1.084114e-01
1.044415e-01
1.006470e-01
9.702087e-02
9.355646e-02
9.024783e-02
8.708958e-02
8.407686e-02
8.120542e-02
7.847157e-02
7.587223e-02
7.340489e-02
7.106771e-02
6.885950e-02
6.677977e-02
6.482877e-02
6.300757e-02
6.131810e-02
5.976325e-02
5.834695e-02
5.707426e-02
5.595153e-02
5.498651e-02
5.418855e-02
5.356874e-02
5.314015e-02
5.291810e-02
9.889407e-01
9.650019e-01
9.394197e-01
9.124439e-01
8.843459e-01
8.554056e-01
8.259006e-01
7.960960e-01
7.662373e-01
7.365444e-01
7.072094e-01
6.783944e-01
6.502329e-01
6.228305e-01
5.962679e-01
5.706032e-01
5.458749e-01
5.221053e-01
4.993024e-01
4.774635e-01
4.565765e-01
4.366224e-01
4.175768e-01
3.994116e-01
3.820957e-01
3.655963e-01
3.498796e-01
3.349115e-01
3.206578e-01
3.070848e-01
2.941598e-01
2.818506e-01
2.701266e-01
2.589579e-01
2.483163e-01
2.381746e-01
2.285071e-01
2.192891e-01
2.104976e-01
2.021104e-01
1.941069e-01
1.864672e-01
1.791730e-01
1.722066e-01
1.655517e-01
1.591928e-01
1.531152e-01
1.473053e-01
1.417503e-01
1.364380e-01
1.313571e-01
1.264972e-01
1.218483e-01
1.174012e-01
1.131474e-01
1.090789e-01
1.051885e-01
1.014694e-01
9.791563e-02
9.452151e-02
9.128217e-02
8.819325e-02
8.525100e-02
8.245231e-02
7.979467e-02
7.727627e-02
7.489599e-02
7.265345e-02
7.054906e-02
6.858412e-02
6.676083e-02
6.508241e-02
6.355321e-02
6.217881e-02
6.096614e-02
5.992365e-02
5.906151e-02
5.839175e-02
5.792854e-02
5.768847e-02
9.897474e-01
9.675444e-01
9.437850e-01
9.186768e-01
8.924484e-01
8.653391e-01
8.375900e-01
8.094353e-01
7.810963e-01
7.527760e-01
7.246555e-01
6.968926e-01
6.696208e-01