# vtk DataFile Version 3.0
13.TVD_MUSCL scheme
ASCII
DATASET STRUCTURED_GRID
DIMENSIONS 41 41 1
POINTS 1681 double
0.000000e+00 0.000000e+00 0.0
2.500000e-02 0.000000e+00 0.0
5.000000e-02 0.000000e+00 0.0
7.500000e-02 0.000000e+00 0.0
1.000000e-01 0.000000e+00 0.0
1.250000e-01 0.000000e+00 0.0
1.500000e-01 0.000000e+00 0.0
1.750000e-01 0.000000e+00 0.0
2.000000e-01 0.000000e+00 0.0
2.250000e-01 0.000000e+00 0.0
2.500000e-01 0.000000e+00 0.0
2.750000e-01 0.000000e+00 0.0
3.000000e-01 0.000000e+00 0.0
3.250000e-01 0.000000e+00 0.0
3.500000e-01 0.000000e+00 0.0
3.750000e-01 0.000000e+00 0.0
4.000000e-01 0.000000e+00 0.0
4.250000e-01 0.000000e+00 0.0
4.500000e-01 0.000000e+00 0.0
4.750000e-01 0.000000e+00 0.0
5.000000e-01 0.000000e+00 0.0
5.250000e-01 0.000000e+00 0.0
5.500000e-01 0.000000e+00 0.0
5.750000e-01 0.000000e+00 0.0
6.000000e-01 0.000000e+00 0.0
6.250000e-01 0.000000e+00 0.0
6.500000e-01 0.000000e+00 0.0
6.750000e-01 0.000000e+00 0.0
7.000000e-01 0.000000e+00 0.0
7.250000e-01 0.000000e+00 0.0
7.500000e-01 0.000000e+00 0.0
7.750000e-01 0.000000e+00 0.0
8.000000e-01 0.000000e+00 0.0
8.250000e-01 0.000000e+00 0.0
8.500000e-01 0.000000e+00 0.0
8.750000e-01 0.000000e+00 0.0
9.000000e-01 0.000000e+00 0.0
9.250000e-01 0.000000e+00 0.0
9.500000e-01 0.000000e+00 0.0
9.750000e-01 0.000000e+00 0.0
1.000000e+00 0.000000e+00 0.0
0.000000e+00 2.500000e-02 0.0
2.500000e-02 2.500000e-02 0.0
5.000000e-02 2.500000e-02 0.0
7.500000e-02 2.500000e-02 0.0
1.000000e-01 2.500000e-02 0.0
1.250000e-01 2.500000e-02 0.0
1.500000e-01 2.500000e-02 0.0
1.750000e-01 2.500000e-02 0.0
2.000000e-01 2.500000e-02 0.0
2.250000e-01 2.500000e-02 0.0
2.500000e-01 2.500000e-02 0.0
2.750000e-01 2.500000e-02 0.0
3.000000e-01 2.500000e-02 0.0
3.250000e-01 2.500000e-02 0.0
3.500000e-01 2.500000e-02 0.0
3.750000e-01 2.500000e-02 0.0
4.000000e-01 2.500000e-02 0.0
4.250000e-01 2.500000e-02 0.0
4.500000e-01 2.500000e-02 0.0
4.750000e-01 2.500000e-02 0.0
5.000000e-01 2.500000e-02 0.0
5.250000e-01 2.500000e-02 0.0
5.500000e-01 2.500000e-02 0.0
5.750000e-01 2.500000e-02 0.0
6.000000e-01 2.500000e-02 0.0
6.250000e-01 2.500000e-02 0.0
6.500000e-01 2.500000e-02 0.0
6.750000e-01 2.500000e-02 0.0
7.000000e-01 2.500000e-02 0.0
7.250000e-01 2.500000e-02 0.0
7.500000e-01 2.500000e-02 0.0
7.750000e-01 2.500000e-02 0.0
8.000000e-01 2.500000e-02 0.0
8.250000e-01 2.500000e-02 0.0
8.500000e-01 2.500000e-02 0.0
8.750000e-01 2.500000e-02 0.0
9.000000e-01 2.500000e-02 0.0
9.250000e-01 2.500000e-02 0.0
9.500000e-01 2.500000e-02 0.0
9.750000e-01 2.500000e-02 0.0
1.000000e+00 2.500000e-02 0.0
0.000000e+00 5.000000e-02 0.0
2.500000e-02 5.000000e-02 0.0
5.000000e-02 5.000000e-02 0.0
7.500000e-02 5.000000e-02 0.0
1.000000e-01 5.000000e-02 0.0
1.250000e-01 5.000000e-02 0.0
1.500000e-01 5.000000e-02 0.0
1.750000e-01 5.000000e-02 0.0
2.000000e-01 5.000000e-02 0.0
2.250000e-01 5.000000e-02 0.0
2.500000e-01 5.000000e-02 0.0
2.750000e-01 5.000000e-02 0.0
3.000000e-01 5.000000e-02 0.0
3.250000e-01 5.000000e-02 0.0
3.500000e-01 5.000000e-02 0.0
3.750000e-01 5.000000e-02 0.0
4.000000e-01 5.000000e-02 0.0
4.250000e-01 5.000000e-02 0.0
4.500000e-01 5.000000e-02 0.0
4.750000e-01 5.000000e-02 0.0
5.000000e-01 5.000000e-02 0.0
5.250000e-01 5.000000e-02 0.0
5.500000e-01 5.000000e-02 0.0
5.750000e-01 5.000000e-02 0.0
6.000000e-01 5.000000e-02 0.0
6.250000e-01 5.000000e-02 0.0
6.500000e-01 5.000000e-02 0.0
6.750000e-01 5.000000e-02 0.0
7.000000e-01 5.000000e-02 0.0
7.250000e-01 5.000000e-02 0.0
7.500000e-01 5.000000e-02 0.0
7.750000e-01 5.000000e-02 0.0
8.000000e-01 5.000000e-02 0.0
8.250000e-01 5.000000e-02 0.0
8.500000e-01 5.000000e-02 0.0
8.750000e-01 5.000000e-02 0.0
9.000000e-01 5.000000e-02 0.0
9.250000e-01 5.000000e-02 0.0
9.500000e-01 5.000000e-02 0.0
9.750000e-01 5.000000e-02 0.0
1.000000e+00 5.000000e-02 0.0
0.000000e+00 7.500000e-02 0.0
2.500000e-02 7.500000e-02 0.0
5.000000e-02 7.500000e-02 0.0
7.500000e-02 7.500000e-02 0.0
1.000000e-01 7.500000e-02 0.0
1.250000e-01 7.500000e-02 0.0
1.500000e-01 7.500000e-02 0.0
1.750000e-01 7.500000e-02 0.0
2.000000e-01 7.500000e-02 0.0
2.250000e-01 7.500000e-02 0.0
2.500000e-01 7.500000e-02 0.0
2.750000e-01 7.500000e-02 0.0
3.000000e-01 7.500000e-02 0.0
3.250000e-01 7.500000e-02 0.0
3.500000e-01 7.500000e-02 0.0
3.750000e-01 7.500000e-02 0.0
4.000000e-01 7.500000e-02 0.0
4.250000e-01 7.500000e-02 0.0
4.500000e-01 7.500000e-02 0.0
4.750000e-01 7.500000e-02 0.0
5.000000e-01 7.500000e-02 0.0
5.250000e-01 7.500000e-02 0.0
5.500000e-01 7.500000e-02 0.0
5.750000e-01 7.500000e-02 0.0
6.000000e-01 7.500000e-02 0.0
6.250000e-01 7.500000e-02 0.0
6.500000e-01 7.500000e-02 0.0
6.750000e-01 7.500000e-02 0.0
7.000000e-01 7.500000e-02 0.0
7.250000e-01 7.500000e-02 0.0
7.500000e-01 7.500000e-02 0.0
7.750000e-01 7.500000e-02 0.0
8.000000e-01 7.500000e-02 0.0
8.250000e-01 7.500000e-02 0.0
8.500000e-01 7.500000e-02 0.0
8.750000e-01 7.500000e-02 0.0
9.000000e-01 7.500000e-02 0.0
9.250000e-01 7.500000e-02 0.0
9.500000e-01 7.500000e-02 0.0
9.750000e-01 7.500000e-02 0.0
1.000000e+00 7.500000e-02 0.0
0.000000e+00 1.000000e-01 0.0
2.500000e-02 1.000000e-01 0.0
5.000000e-02 1.000000e-01 0.0
7.500000e-02 1.000000e-01 0.0
1.000000e-01 1.000000e-01 0.0
1.250000e-01 1.000000e-01 0.0
1.500000e-01 1.000000e-01 0.0
1.750000e-01 1.000000e-01 0.0
2.000000e-01 1.000000e-01 0.0
2.250000e-01 1.000000e-01 0.0
2.500000e-01 1.000000e-01 0.0
2.750000e-01 1.000000e-01 0.0
3.000000e-01 1.000000e-01 0.0
3.250000e-01 1.000000e-01 0.0
3.500000e-01 1.000000e-01 0.0
3.750000e-01 1.000000e-01 0.0
4.000000e-01 1.000000e-01 0.0
4.250000e-01 1.000000e-01 0.0
4.500000e-01 1.000000e-01 0.0
4.750000e-01 1.000000e-01 0.0
5.000000e-01 1.000000e-01 0.0
5.250000e-01 1.000000e-01 0.0
5.500000e-01 1.000000e-01 0.0
5.750000e-01 1.000000e-01 0.0
6.000000e-01 1.000000e-01 0.0
6.250000e-01 1.000000e-01 0.0
6.500000e-01 1.000000e-01 0.0
6.750000e-01 1.000000e-01 0.0
7.000000e-01 1.000000e-01 0.0
7.250000e-01 1.000000e-01 0.0
7.500000e-01 1.000000e-01 0.0
7.750000e-01 1.000000e-01 0.0
8.000000e-01 1.000000e-01 0.0
8.250000e-01 1.000000e-01 0.0
8.500000e-01 1.000000e-01 0.0
8.750000e-01 1.000000e-01 0.0
9.000000e-01 1.000000e-01 0.0
9.250000e-01 1.000000e-01 0.0
9.500000e-01 1.000000e-01 0.0
9.750000e-01 1.000000e-01 0.0
1.000000e+00 1.000000e-01 0.0
0.000000e+00 1.250000e-01 0.0
2.500000e-02 1.250000e-01 0.0
5.000000e-02 1.250000e-01 0.0
7.500000e-02 1.250000e-01 0.0
1.000000e-01 1.250000e-01 0.0
1.250000e-01 1.250000e-01 0.0
1.500000e-01 1.250000e-01 0.0
1.750000e-01 1.250000e-01 0.0
2.000000e-01 1.250000e-01 0.0
2.250000e-01 1.250000e-01 0.0
2.500000e-01 1.250000e-01 0.0
2.750000e-01 1.250000e-01 0.0
3.000000e-01 1.250000e-01 0.0
3.250000e-01 1.250000e-01 0.0
3.500000e-01 1.250000e-01 0.0
3.750000e-01 1.250000e-01 0.0
4.000000e-01 1.250000e-01 0.0
4.250000e-01 1.250000e-01 0.0
4.500000e-01 1.250000e-01 0.0
4.750000e-01 1.250000e-01 0.0
5.000000e-01 1.250000e-01 0.0
5.250000e-01 1.250000e-01 0.0
5.500000e-01 1.250000e-01 0.0
5.750000e-01 1.250000e-01 0.0
6.000000e-01 1.250000e-01 0.0
6.250000e-01 1.250000e-01 0.0
6.500000e-01 1.250000e-01 0.0
6.750000e-01 1.250000e-01 0.0
7.000000e-01 1.250000e-01 0.0
7.250000e-01 1.250000e-01 0.0
7.500000e-01 1.250000e-01 0.0
7.750000e-01 1.250000e-01 0.0
8.000000e-01 1.250000e-01 0.0
8.250000e-01 1.250000e-01 0.0
8.500000e-01 1.250000e-01 0.0
8.750000e-01 1.250000e-01 0.0
9.000000e-01 1.250000e-01 0.0
9.250000e-01 1.250000e-01 0.0
9.500000e-01 1.250000e-01 0.0
9.750000e-01 1.250000e-01 0.0
1.000000e+00 1.250000e-01 0.0
0.000000e+00 1.500000e-01 0.0
2.500000e-02 1.500000e-01 0.0
5.000000e-02 1.500000e-01 0.0
7.500000e-02 1.500000e-01 0.0
1.000000e-01 1.500000e-01 0.0
1.250000e-01 1.500000e-01 0.0
1.500000e-01 1.500000e-01 0.0
1.750000e-01 1.500000e-01 0.0
2.000000e-01 1.500000e-01 0.0
2.250000e-01 1.500000e-01 0.0
2.500000e-01 1.500000e-01 0.0
2.750000e-01 1.500000e-01 0.0
3.000000e-01 1.500000e-01 0.0
3.250000e-01 1.500000e-01 0.0
3.500000e-01 1.500000e-01 0.0
3.750000e-01 1.500000e-01 0.0
4.000000e-01 1.500000e-01 0.0
4.250000e-01 1.500000e-01 0.0
4.500000e-01 1.500000e-01 0.0
4.750000e-01 1.500000e-01 0.0
5.000000e-01 1.500000e-01 0.0
5.250000e-01 1.500000e-01 0.0
5.500000e-01 1.500000e-01 0.0
5.750000e-01 1.500000e-01 0.0
6.000000e-01 1.500000e-01 0.0
6.250000e-01 1.500000e-01 0.0
6.500000e-01 1.500000e-01 0.0
6.750000e-01 1.500000e-01 0.0
7.000000e-01 1.500000e-01 0.0
7.250000e-01 1.500000e-01 0.0
7.500000e-01 1.500000e-01 0.0
7.750000e-01 1.500000e-01 0.0
8.000000e-01 1.500000e-01 0.0
8.250000e-01 1.500000e-01 0.0
8.500000e-01 1.500000e-01 0.0
8.750000e-01 1.500000e-01 0.0
9.000000e-01 1.500000e-01 0.0
9.250000e-01 1.500000e-01 0.0
9.500000e-01 1.500000e-01 0.0
9.750000e-01 1.500000e-01 0.0
1.000000e+00 1.500000e-01 0.0
0.000000e+00 1.750000e-01 0.0
2.500000e-02 1.750000e-01 0.0
5.000000e-02 1.750000e-01 0.0
7.500000e-02 1.750000e-01 0.0
1.000000e-01 1.750000e-01 0.0
1.250000e-01 1.750000e-01 0.0
1.500000e-01 1.750000e-01 0.0
1.750000e-01 1.750000e-01 0.0
2.000000e-01 1.750000e-01 0.0
2.250000e-01 1.750000e-01 0.0
2.500000e-01 1.750000e-01 0.0
2.750000e-01 1.750000e-01 0.0
3.000000e-01 1.750000e-01 0.0
3.250000e-01 1.750000e-01 0.0
3.500000e-01 1.750000e-01 0.0
3.750000e-01 1.750000e-01 0.0
4.000000e-01 1.750000e-01 0.0
4.250000e-01 1.750000e-01 0.0
4.500000e-01 1.750000e-01 0.0
4.750000e-01 1.750000e-01 0.0
5.000000e-01 1.750000e-01 0.0
5.250000e-01 1.750000e-01 0.0
5.500000e-01 1.750000e-01 0.0
5.750000e-01 1.750000e-01 0.0
6.000000e-01 1.750000e-01 0.0
6.250000e-01 1.750000e-01 0.0
6.500000e-01 1.750000e-01 0.0
6.750000e-01 1.750000e-01 0.0
7.000000e-01 1.750000e-01 0.0
7.250000e-01 1.750000e-01 0.0
7.500000e-01 1.750000e-01 0.0
7.750000e-01 1.750000e-01 0.0
8.000000e-01 1.750000e-01 0.0
8.250000e-01 1.750000e-01 0.0
8.500000e-01 1.750000e-01 0.0
8.750000e-01 1.750000e-01 0.0
9.000000e-01 1.750000e-01 0.0
9.250000e-01 1.750000e-01 0.0
9.500000e-01 1.750000e-01 0.0
9.750000e-01 1.750000e-01 0.0
1.000000e+00 1.750000e-01 0.0
0.000000e+00 2.000000e-01 0.0
[...]
CELL_DATA 1600
SCALARS Temperature double 1
LOOKUP_TABLE default
5.000000e-01
1.420563e-01
5.027086e-02
2.171554e-02
1.090145e-02
6.002188e-03
3.459250e-03
2.046058e-03
1.233323e-03
7.549060e-04
4.679504e-04
2.931422e-04
1.852754e-04
1.179954e-04
7.564549e-05
4.877711e-05
3.161347e-05
2.058295e-05
1.345602e-05
8.829274e-06
5.812759e-06
3.838477e-06
2.541804e-06
1.687457e-06
1.122906e-06
7.488549e-07
5.004150e-07
3.350582e-07
2.248010e-07
1.511108e-07
1.017456e-07
6.860886e-08
4.632699e-08
3.132098e-08
2.120066e-08
1.436633e-08
9.745263e-09
6.616560e-09
4.492533e-09
3.026587e-09
8.579437e-01
5.000000e-01
2.655409e-01
1.397550e-01
7.564858e-02
4.247628e-02
2.463876e-02
1.465503e-02
8.882720e-03
5.463385e-03
3.400292e-03
2.137234e-03
1.354648e-03
8.648412e-04
5.556204e-04
3.589402e-04
2.330211e-04
1.519390e-04
9.946060e-05
6.533943e-05
4.306259e-05
2.846442e-05
1.886577e-05
1.253493e-05
8.347597e-06
5.570823e-06
3.725060e-06
2.495746e-06
1.675625e-06
1.127037e-06
7.592516e-07
5.122165e-07
3.460147e-07
2.340294e-07
1.584706e-07
1.074235e-07
7.289419e-08
4.950734e-08
3.362483e-08
2.265982e-08
9.497291e-01
7.344591e-01
5.000000e-01
3.167225e-01
1.943454e-01
1.183156e-01
7.232446e-02
4.459638e-02
2.776227e-02
1.743755e-02
1.103991e-02
7.038561e-03
4.515288e-03
2.912532e-03
1.887929e-03
1.229177e-03
8.034714e-04
5.271000e-04
3.469302e-04
2.290315e-04
1.516158e-04
1.006225e-04
6.693637e-05
4.462426e-05
2.980948e-05
1.995041e-05
1.337548e-05
8.981950e-06
6.040622e-06
4.068457e-06
2.744026e-06
1.853199e-06
1.253129e-06
8.483527e-07
5.749560e-07
3.900706e-07
2.648955e-07
1.800408e-07
1.223676e-07
8.252286e-08
9.782845e-01
8.602450e-01
6.832775e-01
5.000000e-01
3.459899e-01
2.313907e-01
1.518945e-01
9.884372e-02
6.413253e-02
4.161845e-02
2.705524e-02
1.763149e-02
1.152188e-02
7.550645e-03
4.961957e-03
3.269550e-03
2.159910e-03
1.430334e-03
9.493684e-04
6.314948e-04
4.209081e-04
2.810834e-04
1.880461e-04
1.260171e-04
8.458390e-05
5.685909e-05
3.827626e-05
2.580124e-05
1.741399e-05
1.176729e-05
7.960741e-06
5.391475e-06
3.655249e-06
2.480617e-06
1.685058e-06
1.145677e-06
7.796134e-07
5.309012e-07
3.614995e-07
2.442485e-07
9.890986e-01
9.243514e-01
8.056546e-01
6.540101e-01
5.000000e-01
3.652334e-01
2.583025e-01
1.787331e-01
1.219362e-01
8.245452e-02
5.546055e-02
3.719126e-02
2.490174e-02
1.666356e-02
1.115131e-02
7.465870e-03
5.002019e-03
3.354237e-03
2.251495e-03
1.512874e-03
1.017658e-03
6.852868e-04
4.619673e-04
3.117538e-04
2.106027e-04
1.424151e-04
9.639962e-05
6.531420e-05
4.429330e-05
3.006440e-05
2.042388e-05
1.388619e-05
9.448775e-06
6.434332e-06
4.384855e-06
2.990327e-06
2.040698e-06
1.393443e-06
9.512715e-07
6.444278e-07
9.939978e-01
9.575237e-01
8.816844e-01
7.686093e-01
6.347666e-01
5.000000e-01
3.789900e-01
2.788388e-01
2.006212e-01
1.419954e-01
9.931323e-02
6.886948e-02
4.746691e-02
3.257357e-02
2.228459e-02
1.521295e-02
1.037023e-02
7.062340e-03
4.806823e-03
3.270690e-03
2.225279e-03
1.514130e-03
1.030451e-03
7.014824e-04
4.777059e-04
3.254472e-04
2.218156e-04
1.512539e-04
1.031884e-04
7.043189e-05
4.809774e-05
3.286230e-05
2.246410e-05
1.536374e-05
1.051283e-05
7.197051e-06
4.929405e-06
3.377547e-06
2.313362e-06
1.572430e-06
9.965408e-01
9.753612e-01
9.276755e-01
8.481055e-01
7.416975e-01
6.210100e-01
5.000000e-01
3.893949e-01
2.951018e-01
2.188197e-01
1.594946e-01
1.147059e-01
8.163971e-02
5.763732e-02
4.043663e-02
2.823054e-02
1.963381e-02
1.361428e-02
9.418328e-03
6.503783e-03
4.484855e-03
3.089314e-03
2.126276e-03
1.462555e-03
1.005571e-03
6.911639e-04
4.749688e-04
3.263655e-04
2.242489e-04
1.540883e-04
1.058871e-04
7.277263e-05
5.002176e-05
3.438962e-05
2.364736e-05
1.626418e-05
1.118867e-05
7.698255e-06
5.293695e-06
3.612838e-06
9.979539e-01
9.853450e-01
9.554036e-01
9.011563e-01
8.212669e-01
7.211612e-01
6.106051e-01
5.000000e-01
3.975915e-01
3.083557e-01
2.342112e-01
1.748627e-01
1.287300e-01
9.368843e-02
6.755240e-02
4.833862e-02
3.437574e-02
2.432221e-02
1.713728e-02
1.203342e-02
8.425687e-03
5.885775e-03
4.103545e-03
2.856384e-03
1.985619e-03
1.378785e-03
9.565383e-04
6.631063e-04
4.594074e-04
3.181241e-04
2.202019e-04
1.523727e-04
1.054109e-04
7.290921e-05
5.042196e-05
3.486715e-05
2.410935e-05
1.666895e-05
1.151566e-05
7.896522e-06
9.987667e-01
9.911173e-01
9.722377e-01
9.358675e-01
8.780638e-01
7.993788e-01
7.048982e-01
6.024085e-01
5.000000e-01
4.042497e-01
3.194060e-01
2.474221e-01
1.884584e-01
1.415165e-01
1.050006e-01
7.712577e-02
5.617297e-02
4.062164e-02
2.919942e-02
2.088243e-02
1.487010e-02
1.055002e-02
7.461644e-03
5.263257e-03
3.704080e-03
2.601672e-03
1.824278e-03
1.277315e-03
8.932243e-04
6.239556e-04
4.354536e-04
3.036553e-04
2.116015e-04
1.473661e-04
1.025779e-04
7.137046e-05
4.963825e-05
3.450963e-05
2.396714e-05
1.652369e-05
9.992451e-01
9.945366e-01
9.825625e-01
9.583816e-01
9.175455e-01
8.580046e-01
7.811803e-01
6.916443e-01
5.957503e-01
5.000000e-01
4.097890e-01
3.287904e-01
2.589064e-01
2.005731e-01
1.532001e-01
1.155971e-01
8.631264e-02
6.386735e-02
4.689288e-02
3.419990e-02
2.479877e-02
1.789210e-02
1.285307e-02
9.198416e-03
6.561310e-03
4.666810e-03
3.310985e-03
2.343882e-03
1.656045e-03
1.168063e-03
8.226333e-04
5.785864e-04
4.064611e-04
2.852443e-04
1.999925e-04
1.401052e-04
9.807889e-05
6.860917e-05
4.793187e-05
3.324570e-05
9.995320e-01
9.965997e-01
9.889601e-01
9.729448e-01
9.445394e-01
9.006868e-01
8.405054e-01
7.657888e-01
6.805940e-01
5.902110e-01
5.000000e-01
4.144865e-01
3.368818e-01
2.689997e-01
2.114418e-01
1.639068e-01
1.255165e-01
9.509486e-02
7.137446e-02
5.313305e-02
3.927026e-02
2.884186e-02
2.106569e-02
1.531120e-02
1.108087e-02
7.988896e-03
5.740331e-03
4.112338e-03
2.938234e-03
2.094380e-03
1.489726e-03
1.057637e-03
7.496032e-04
5.304770e-04
3.748945e-04
2.646171e-04
1.865705e-04
1.314020e-04
9.239977e-05
6.451595e-05
9.997069e-01
9.978628e-01
9.929614e-01
9.823685e-01
9.628087e-01
9.311305e-01
8.852941e-01
8.251373e-01
7.525779e-01
6.712096e-01
5.855135e-01
5.000000e-01
4.185329e-01
3.439475e-01
2.779552e-01
2.212541e-01
1.737496e-01
1.348052e-01
1.034709e-01
7.866491e-02
5.930069e-02
4.436773e-02
3.297372e-02
2.436033e-02
1.790174e-02
1.309341e-02
9.536182e-03
6.919150e-03
5.003308e-03
3.606931e-03
2.593146e-03
1.859697e-03
1.330723e-03
9.502896e-04
6.773759e-04
4.820391e-04
3.425126e-04
2.430209e-04
1.721025e-04
1.210376e-04
9.998147e-01
9.986454e-01
9.954847e-01
9.884781e-01
9.750983e-01
9.525331e-01
9.183603e-01
8.712700e-01
8.115416e-01
7.410936e-01
6.631182e-01
5.814671e-01
5.000000e-01
4.220638e-01
3.501841e-01
2.859672e-01
2.301638e-01
1.828280e-01
1.435111e-01
1.114497e-01
8.572199e-02
6.536599e-02
4.945851e-02
3.716237e-02
2.774890e-02
2.060352e-02
1.522067e-02
1.119281e-02
8.196917e-03
5.980527e-03
4.348693e-03
3.152428e-03
2.278874e-03
1.643212e-03
1.182124e-03
8.486241e-04
6.080330e-04
4.348534e-04
3.103098e-04
2.199395e-04
9.998820e-01
9.991352e-01
9.970875e-01
9.924494e-01
9.833364e-01
9.674264e-01
9.423627e-01
9.063116e-01
8.584835e-01
7.994269e-01
7.310003e-01
6.560525e-01
5.779362e-01
5.000000e-01
4.251790e-01
3.557400e-01
2.931875e-01
2.382966e-01
1.912284e-01
1.516815e-01
1.190458e-01
9.253793e-02
7.130808e-02
5.451623e-02
4.138119e-02
3.120764e-02
2.339709e-02
1.744784e-02
1.294829e-02
9.566743e-03
7.039929e-03
5.161531e-03
3.771668e-03
2.747625e-03
1.996010e-03
1.446274e-03
1.045465e-03
7.540458e-04
5.424731e-04
3.876882e-04
9.999244e-01
9.994444e-01
9.981121e-01
9.950380e-01
9.888487e-01
9.777154e-01
9.595634e-01
9.324476e-01
8.949994e-01
8.467999e-01
7.885582e-01
7.220448e-01
6.498159e-01
5.748210e-01
5.000000e-01
4.279532e-01
3.607292e-01
2.997361e-01
2.457556e-01
1.990258e-01
1.593609e-01
1.262774e-01
9.911110e-02
7.711290e-02
5.952059e-02
4.560824e-02
3.471600e-02
2.626491e-02
1.976101e-02
1.479227e-02
1.102146e-02
8.176957e-03
6.042892e-03
4.449768e-03
3.265839e-03
2.389632e-03
1.743599e-03
1.268859e-03
9.207132e-04
6.637895e-04
9.999512e-01
9.996411e-01
9.987708e-01
9.967304e-01
9.925341e-01
9.847870e-01
9.717695e-01
9.516614e-01
9.228742e-01
8.844029e-01
8.360932e-01
7.787459e-01
7.140328e-01
6.442600e-01
5.720468e-01
5.000000e-01
4.304438e-01
3.652408e-01
3.057097e-01
2.526266e-01
2.062851e-01
1.665903e-01
1.331639e-01
1.054441e-01
8.277151e-02
6.445616e-02
4.982560e-02
3.825631e-02
2.919127e-02
2.214722e-02
1.671476e-02
1.255385e-02
9.386739e-03
6.989798e-03
5.185182e-03
3.832993e-03
2.824222e-03
2.074581e-03
1.518999e-03
1.105229e-03
9.999684e-01
9.997670e-01
9.991965e-01
9.978401e-01
9.949980e-01
9.896298e-01
9.803662e-01
9.656243e-01
9.438270e-01
9.136874e-01
8.744835e-01
8.262504e-01
7.698362e-01
7.068125e-01
6.392708e-01
5.695562e-01
5.000000e-01
4.326956e-01
3.693457e-01
3.111866e-01
2.589812e-01
2.130624e-01
1.734075e-01
1.397253e-01
1.115423e-01
8.827885e-02
6.931145e-02
5.401875e-02
4.181355e-02
3.216225e-02
2.459459e-02
1.870625e-02
1.415674e-02
1.066423e-02
7.998965e-03
5.976006e-03
4.448190e-03
3.299487e-03
2.438689e-03
1.791464e-03
9.999794e-01
9.998481e-01
9.994729e-01
9.985697e-01
9.966458e-01
9.929377e-01
9.863857e-01
9.756778e-01
9.593784e-01
9.361326e-01
9.049051e-01
8.651948e-01
8.171720e-01
7.617034e-01
7.002639e-01
6.347592e-01
5.673044e-01
5.000000e-01
4.347442e-01
3.731009e-01
3.162311e-01
2.648796e-01
2.194067e-01
1.798468e-01
1.459813e-01
1.174129e-01
9.363275e-02
7.407813e-02
5.817604e-02
4.537498e-02
3.516561e-02
2.709230e-02
2.075781e-02
1.582318e-02
1.200434e-02
9.066900e-03
6.820029e-03
5.110069e-03
3.813885e-03
2.829601e-03
9.999865e-01
9.999005e-01
9.996531e-01
9.990506e-01
9.977485e-01
9.951932e-01
9.905817e-01
9.828627e-01
9.708006e-01
9.531071e-01
9.286255e-01
8.965291e-01
8.564889e-01
8.087716e-01
7.542444e-01
6.942903e-01
6.306543e-01
5.652558e-01
5.000000e-01
4.366181e-01
3.765531e-01
3.208967e-01
2.703729e-01
2.253604e-01
1.859390e-01
1.519509e-01
1.230642e-01
9.883315e-02
7.875035e-02
6.228820e-02
4.892989e-02
3.819064e-02
2.963057e-02
2.286110e-02
1.754649e-02
1.340199e-02
1.018995e-02
7.714630e-03
5.815876e-03
4.359203e-03
9.999912e-01
9.999347e-01
9.997710e-01
9.993685e-01
9.984871e-01
9.967293e-01
9.934962e-01
9.879666e-01
9.791176e-01
9.658001e-01
9.468670e-01
9.213351e-01
8.885503e-01
8.483185e-01
8.009742e-01
7.473734e-01
6.888134e-01
6.268991e-01
5.633819e-01
5.000000e-01
4.383407e-01
3.797406e-01
3.252280e-01
2.755047e-01
2.309607e-01
1.917123e-01
1.576522e-01
1.285052e-01
1.038816e-01
8.332422e-02
6.634796e-02
5.246933e-02
4.122800e-02
3.220062e-02
2.500844e-02
1.932031e-02
1.485218e-02
1.136420e-02
8.655787e-03
6.556038e-03
9.999942e-01
9.999569e-01
9.998484e-01
9.995791e-01
9.989823e-01
9.977747e-01
9.955151e-01
9.915743e-01
9.851299e-01
9.752012e-01
9.607297e-01
9.406993e-01
9.142780e-01
8.809542e-01
8.406391e-01
7.937149e-01
7.410188e-01
6.837689e-01
6.234469e-01
5.616593e-01
5.000000e-01
4.399312e-01
3.826954e-01
3.292628e-01
2.803122e-01
2.362403e-01
1.971918e-01
1.631021e-01
1.337451e-01
1.087806e-01
8.779743e-02
7.034971e-02
5.598586e-02
4.426964e-02
3.479460e-02
2.719274e-02
2.113861e-02
1.634982e-02
1.258454e-02
9.633924e-03
9.999962e-01
9.999715e-01
9.998994e-01
9.997189e-01
9.993147e-01
9.984859e-01
9.969107e-01
9.941142e-01
9.894500e-01
9.821079e-01
9.711581e-01
9.556323e-01
9.346340e-01
9.074621e-01
8.737226e-01
8.334097e-01
7.869376e-01
7.351204e-01
6.791033e-01
6.202594e-01
5.600688e-01
5.000000e-01
4.414055e-01
3.854442e-01
3.330331e-01
2.848278e-01
2.412277e-01
2.024003e-01
1.683166e-01
1.387932e-01
1.135338e-01
9.216888e-02
7.428918e-02
5.947333e-02
4.730857e-02
3.740551e-02
2.940751e-02
2.299555e-02
1.788932e-02
1.384390e-02
9.999975e-01
9.999811e-01
9.999331e-01
9.998120e-01
9.995380e-01
9.989695e-01
9.978737e-01
9.958965e-01
9.925384e-01
9.871469e-01
9.789343e-01
9.670263e-01
9.505415e-01
9.286919e-01
9.008889e-01
8.668361e-01
8.265925e-01
7.805933e-01
7.296271e-01
6.747720e-01
6.173046e-01
5.585945e-01
5.000000e-01
4.427770e-01
3.880098e-01
3.365664e-01
2.890795e-01
2.459484e-01
2.073584e-01
1.733106e-01
1.436585e-01
1.181451e-01
9.643843e-02
7.816326e-02
6.292672e-02
5.033881e-02
4.002715e-02
3.164679e-02
2.488597e-02
1.946999e-02
9.999983e-01
9.999875e-01
9.999554e-01
9.998740e-01
9.996882e-01
9.992985e-01
9.985374e-01
9.971436e-01
9.947367e-01
9.908016e-01
9.846888e-01
9.756397e-01
9.628376e-01
9.454838e-01
9.228871e-01
8.945559e-01
8.602747e-01
8.201532e-01
7.746396e-01
7.244953e-01
6.707372e-01
6.145558e-01
5.572230e-01
5.000000e-01
4.440572e-01
3.904115e-01
3.398863e-01
2.930917e-01
2.504248e-01
2.120846e-01
1.780978e-01
1.483499e-01
1.226187e-01
1.006067e-01
8.196972e-02
6.634194e-02
5.335527e-02
4.265423e-02
3.390723e-02
2.682121e-02
9.999989e-01
9.999917e-01
9.999702e-01
9.999154e-01
9.997894e-01
9.995223e-01
9.989944e-01
9.980144e-01
9.962959e-01
9.934387e-01
9.889191e-01
9.820983e-01
9.722511e-01
9.586188e-01
9.404794e-01
9.172285e-01
8.884577e-01
8.540187e-01
8.140610e-01
7.690393e-01
7.196878e-01
6.669669e-01
6.119902e-01
5.559428e-01
5.000000e-01
4.452555e-01
3.926661e-01
3.430134e-01
2.968859e-01
2.546767e-01
2.165958e-01
1.826910e-01
1.528759e-01
1.269593e-01
1.046748e-01
8.570712e-02
6.971582e-02
5.635428e-02
4.528705e-02
3.621967e-02
9.999993e-01
9.999944e-01
9.999800e-01
9.999431e-01
9.998576e-01
9.996746e-01
9.993088e-01
9.986212e-01
9.973983e-01
9.953332e-01
9.920111e-01
9.869066e-01
9.793965e-01
9.687924e-01
9.543918e-01
9.355438e-01
9.117211e-01
8.825871e-01
8.480491e-01
8.082877e-01
7.637597e-01
7.151722e-01
6.634336e-01
6.095885e-01
5.547445e-01
5.000000e-01
4.463805e-01
3.947877e-01
3.459654e-01
3.004808e-01
2.587221e-01
2.209072e-01
1.871020e-01
1.572446e-01
1.311715e-01
1.086444e-01
8.937486e-02
7.304724e-02
5.934191e-02
4.798524e-02
9.999995e-01
9.999963e-01
9.999866e-01
9.999617e-01
9.999036e-01
9.997782e-01
9.995250e-01
9.990435e-01
9.981757e-01
9.966890e-01
9.942597e-01
9.904638e-01
9.847793e-01
9.766029e-01
9.652840e-01
9.501744e-01
9.306885e-01
9.063673e-01
8.769358e-01
8.423478e-01
8.028082e-01
7.587723e-01
7.109205e-01
6.601137e-01
6.073339e-01
5.536195e-01
5.000000e-01
4.474392e-01
3.967890e-01
3.487579e-01
3.038932e-01
2.625768e-01
2.250326e-01
1.913419e-01
1.614640e-01
1.352601e-01
1.125178e-01
9.297513e-02
7.635045e-02
6.241762e-02
9.999997e-01
9.999975e-01
9.999910e-01
9.999742e-01
9.999347e-01
9.998487e-01
9.996736e-01
9.993369e-01
9.987227e-01
9.976561e-01
9.958877e-01
9.930809e-01
9.888072e-01
9.825522e-01
9.737351e-01
9.617437e-01
9.459813e-01
9.259219e-01
9.011669e-01
8.714948e-01
8.368979e-01
7.975997e-01
7.540516e-01
7.069083e-01
6.569866e-01
6.052123e-01
5.525608e-01
5.000000e-01
4.484378e-01
3.986809e-01
3.514049e-01
3.071378e-01
2.662551e-01
2.289847e-01
1.954208e-01
1.655414e-01
1.392303e-01
1.163011e-01
9.653299e-02
7.977707e-02
9.999998e-01
9.999983e-01
9.999940e-01
9.999826e-01
9.999557e-01
9.998968e-01
9.997758e-01
9.995406e-01
9.991068e-01
9.983440e-01
9.970618e-01
9.949967e-01
9.918031e-01
9.870517e-01
9.802390e-01
9.708087e-01
9.581864e-01
9.418240e-01
9.212497e-01
8.961184e-01
8.662549e-01
8.316834e-01
7.926416e-01
7.495752e-01
7.031141e-01
6.540346e-01
6.032110e-01
5.515622e-01
5.000000e-01
4.493819e-01
4.004729e-01
3.539184e-01
3.102279e-01
2.697698e-01
2.327750e-01
1.993483e-01
1.694849e-01
1.430926e-01
1.200329e-01
1.002654e-01
9.999998e-01
9.999989e-01
9.999959e-01
9.999882e-01
9.999699e-01
9.999296e-01
9.998459e-01
9.996819e-01
9.993760e-01
9.988319e-01
9.979056e-01
9.963931e-01
9.940195e-01
9.904333e-01
9.852077e-01
9.778528e-01
9.678377e-01
9.546250e-01
9.377118e-01
9.166758e-01
8.912194e-01
8.612068e-01
8.266894e-01
7.879154e-01
7.453233e-01
6.995192e-01
6.512421e-01
6.013191e-01
5.506181e-01
5.000000e-01
4.502761e-01
4.021735e-01
3.563093e-01
3.131753e-01
2.731326e-01
2.364141e-01
2.031345e-01
1.733095e-01
1.469015e-01
1.240086e-01
9.999999e-01
9.999992e-01
9.999973e-01
9.999920e-01
9.999796e-01
9.999519e-01
9.998941e-01
9.997798e-01
9.995645e-01
9.991774e-01
9.985103e-01
9.974069e-01
9.956513e-01
9.929601e-01
9.889785e-01
9.832852e-01
9.754054e-01
9.648344e-01
9.510701e-01
9.336520e-01
9.122026e-01
8.864662e-01
8.563415e-01
8.219022e-01
7.834042e-01
7.412779e-01
6.961068e-01
6.485951e-01
5.995271e-01
5.497239e-01
5.000000e-01
4.511248e-01
4.037902e-01
3.585870e-01
3.159905e-01
2.763544e-01
2.399136e-01
2.067989e-01
1.770877e-01
1.510435e-01
9.999999e-01
9.999995e-01
9.999981e-01
9.999946e-01
9.999861e-01
9.999671e-01
9.999272e-01
9.998476e-01
9.996963e-01
9.994214e-01
9.989424e-01
9.981403e-01
9.968476e-01
9.948385e-01
9.918230e-01
9.874462e-01
9.812937e-01
9.729077e-01
9.618094e-01
9.475307e-01
9.296503e-01
9.078311e-01
8.818549e-01
8.516501e-01
8.173090e-01
7.790928e-01
7.374232e-01
6.928622e-01
6.460816e-01
5.978265e-01
5.488752e-01
5.000000e-01
4.519316e-01
4.053296e-01
3.607604e-01
3.186836e-01
2.794472e-01
2.432972e-01
2.104340e-01
1.813084e-01
1.000000e+00
9.999997e-01
9.999987e-01
9.999963e-01
9.999906e-01
9.999775e-01
9.999500e-01
9.998946e-01
9.997884e-01
9.995935e-01
9.992504e-01
9.986693e-01
9.977211e-01
9.962283e-01
9.939571e-01
9.906133e-01
9.858433e-01
9.792422e-01
9.703694e-01
9.587720e-01
9.440141e-01
9.257108e-01
9.035616e-01
8.773813e-01
8.471241e-01
8.128980e-01
7.749674e-01
7.337449e-01
6.897721e-01
6.436907e-01
5.962098e-01
5.480684e-01
5.000000e-01
4.526999e-01
4.067978e-01
3.628378e-01
3.212665e-01
2.824385e-01
2.466789e-01
2.146401e-01
1.000000e+00
9.999998e-01
9.999992e-01
9.999975e-01
9.999936e-01
9.999846e-01
9.999656e-01
9.999271e-01
9.998526e-01
9.997148e-01
9.994695e-01
9.990497e-01
9.983568e-01
9.972524e-01
9.955502e-01
9.930102e-01
9.893358e-01
9.841768e-01
9.771389e-01
9.677994e-01
9.557304e-01
9.405267e-01
9.218367e-01
8.993933e-01
8.730407e-01
8.427554e-01
8.086581e-01
7.710153e-01
7.302302e-01
6.868247e-01
6.414130e-01
5.946704e-01
5.473001e-01
5.000000e-01
4.534327e-01
4.082008e-01
3.648300e-01
3.237700e-01
2.854651e-01
2.507762e-01
1.000000e+00
9.999998e-01
9.999994e-01
9.999983e-01
9.999956e-01
9.999895e-01
9.999764e-01
9.999496e-01
9.998974e-01
9.998000e-01
9.996251e-01
9.993226e-01
9.988179e-01
9.980040e-01
9.967342e-01
9.948148e-01
9.920010e-01
9.879957e-01
9.824535e-01
9.749916e-01
9.652054e-01
9.526914e-01
9.370733e-01
9.180303e-01
8.953252e-01
8.688285e-01
8.385360e-01
8.045792e-01
7.672250e-01
7.268674e-01
6.840095e-01
6.392396e-01
5.932022e-01
5.465673e-01
5.000000e-01
4.541335e-01
4.095483e-01
3.667711e-01
3.263538e-01
2.893639e-01
1.000000e+00
9.999999e-01
9.999996e-01
9.999989e-01
9.999970e-01
9.999928e-01
9.999837e-01
9.999651e-01
9.999286e-01
9.998599e-01
9.997354e-01
9.995180e-01
9.991514e-01
9.985537e-01
9.976104e-01
9.961670e-01
9.940240e-01
9.909331e-01
9.865980e-01
9.806797e-01
9.728073e-01
9.625945e-01
9.496612e-01
9.336581e-01
9.142929e-01
8.913556e-01
8.647399e-01
8.344586e-01
8.006517e-01
7.635859e-01
7.236456e-01
6.813164e-01
6.371622e-01
5.917992e-01
5.458665e-01
5.000000e-01
4.548092e-01
4.108757e-01
3.688422e-01
3.299720e-01
1.000000e+00
9.999999e-01
9.999997e-01
9.999992e-01
9.999980e-01
9.999951e-01
9.999888e-01
9.999759e-01
9.999504e-01
9.999019e-01
9.998134e-01
9.996575e-01
9.993920e-01
9.989545e-01
9.982564e-01
9.971758e-01
9.955518e-01
9.931800e-01
9.898100e-01
9.851478e-01
9.788614e-01
9.705925e-01
9.599729e-01
9.466447e-01
9.302842e-01
9.106251e-01
8.874822e-01
8.607697e-01
8.305151e-01
7.968655e-01
7.600864e-01
7.205528e-01
6.787335e-01
6.351700e-01
5.904517e-01
5.451908e-01
5.000000e-01
4.554918e-01
4.123792e-01
3.721032e-01
1.000000e+00
1.000000e+00
9.999998e-01
9.999995e-01
9.999986e-01
9.999966e-01
9.999923e-01
9.999833e-01
9.999655e-01
9.999314e-01
9.998686e-01
9.997570e-01
9.995651e-01
9.992460e-01
9.987311e-01
9.979254e-01
9.967005e-01
9.948899e-01
9.922854e-01
9.886358e-01
9.836502e-01
9.770044e-01
9.683532e-01
9.573458e-01
9.436457e-01
9.269528e-01
9.070249e-01
8.836989e-01
8.569074e-01
8.266905e-01
7.932011e-01
7.567028e-01
7.175615e-01
6.762300e-01
6.332289e-01
5.891243e-01
5.445082e-01
5.000000e-01
4.563603e-01
4.151826e-01
1.000000e+00
1.000000e+00
9.999999e-01
9.999996e-01
9.999990e-01
9.999977e-01
9.999947e-01
9.999885e-01
9.999760e-01
9.999521e-01
9.999076e-01
9.998279e-01
9.996897e-01