# vtk DataFile Version 3.0
13.TVD_MUSCL scheme
ASCII
DATASET STRUCTURED_GRID
DIMENSIONS 81 81 1
POINTS 6561 double
0.000000e+00 0.000000e+00 0.0
1.250000e-02 0.000000e+00 0.0
2.500000e-02 0.000000e+00 0.0
3.750000e-02 0.000000e+00 0.0
5.000000e-02 0.000000e+00 0.0
6.250000e-02 0.000000e+00 0.0
7.500000e-02 0.000000e+00 0.0
8.750000e-02 0.000000e+00 0.0
1.000000e-01 0.000000e+00 0.0
1.125000e-01 0.000000e+00 0.0
1.250000e-01 0.000000e+00 0.0
1.375000e-01 0.000000e+00 0.0
1.500000e-01 0.000000e+00 0.0
1.625000e-01 0.000000e+00 0.0
1.750000e-01 0.000000e+00 0.0
1.875000e-01 0.000000e+00 0.0
2.000000e-01 0.000000e+00 0.0
2.125000e-01 0.000000e+00 0.0
2.250000e-01 0.000000e+00 0.0
2.375000e-01 0.000000e+00 0.0
2.500000e-01 0.000000e+00 0.0
2.625000e-01 0.000000e+00 0.0
2.750000e-01 0.000000e+00 0.0
2.875000e-01 0.000000e+00 0.0
3.000000e-01 0.000000e+00 0.0
3.125000e-01 0.000000e+00 0.0
3.250000e-01 0.000000e+00 0.0
3.375000e-01 0.000000e+00 0.0
3.500000e-01 0.000000e+00 0.0
3.625000e-01 0.000000e+00 0.0
3.750000e-01 0.000000e+00 0.0
3.875000e-01 0.000000e+00 0.0
4.000000e-01 0.000000e+00 0.0
4.125000e-01 0.000000e+00 0.0
4.250000e-01 0.000000e+00 0.0
4.375000e-01 0.000000e+00 0.0
4.500000e-01 0.000000e+00 0.0
4.625000e-01 0.000000e+00 0.0
4.750000e-01 0.000000e+00 0.0
4.875000e-01 0.000000e+00 0.0
5.000000e-01 0.000000e+00 0.0
5.125000e-01 0.000000e+00 0.0
5.250000e-01 0.000000e+00 0.0
5.375000e-01 0.000000e+00 0.0
5.500000e-01 0.000000e+00 0.0
5.625000e-01 0.000000e+00 0.0
5.750000e-01 0.000000e+00 0.0
5.875000e-01 0.000000e+00 0.0
6.000000e-01 0.000000e+00 0.0
6.125000e-01 0.000000e+00 0.0
6.250000e-01 0.000000e+00 0.0
6.375000e-01 0.000000e+00 0.0
6.500000e-01 0.000000e+00 0.0
6.625000e-01 0.000000e+00 0.0
6.750000e-01 0.000000e+00 0.0
6.875000e-01 0.000000e+00 0.0
7.000000e-01 0.000000e+00 0.0
7.125000e-01 0.000000e+00 0.0
7.250000e-01 0.000000e+00 0.0
7.375000e-01 0.000000e+00 0.0
7.500000e-01 0.000000e+00 0.0
7.625000e-01 0.000000e+00 0.0
7.750000e-01 0.000000e+00 0.0
7.875000e-01 0.000000e+00 0.0
8.000000e-01 0.000000e+00 0.0
8.125000e-01 0.000000e+00 0.0
8.250000e-01 0.000000e+00 0.0
8.375000e-01 0.000000e+00 0.0
8.500000e-01 0.000000e+00 0.0
8.625000e-01 0.000000e+00 0.0
8.750000e-01 0.000000e+00 0.0
8.875000e-01 0.000000e+00 0.0
9.000000e-01 0.000000e+00 0.0
9.125000e-01 0.000000e+00 0.0
9.250000e-01 0.000000e+00 0.0
9.375000e-01 0.000000e+00 0.0
9.500000e-01 0.000000e+00 0.0
9.625000e-01 0.000000e+00 0.0
9.750000e-01 0.000000e+00 0.0
9.875000e-01 0.000000e+00 0.0
1.000000e+00 0.000000e+00 0.0
0.000000e+00 1.250000e-02 0.0
1.250000e-02 1.250000e-02 0.0
2.500000e-02 1.250000e-02 0.0
3.750000e-02 1.250000e-02 0.0
5.000000e-02 1.250000e-02 0.0
6.250000e-02 1.250000e-02 0.0
7.500000e-02 1.250000e-02 0.0
8.750000e-02 1.250000e-02 0.0
1.000000e-01 1.250000e-02 0.0
1.125000e-01 1.250000e-02 0.0
1.250000e-01 1.250000e-02 0.0
1.375000e-01 1.250000e-02 0.0
1.500000e-01 1.250000e-02 0.0
1.625000e-01 1.250000e-02 0.0
1.750000e-01 1.250000e-02 0.0
1.875000e-01 1.250000e-02 0.0
2.000000e-01 1.250000e-02 0.0
2.125000e-01 1.250000e-02 0.0
2.250000e-01 1.250000e-02 0.0
2.375000e-01 1.250000e-02 0.0
2.500000e-01 1.250000e-02 0.0
2.625000e-01 1.250000e-02 0.0
2.750000e-01 1.250000e-02 0.0
2.875000e-01 1.250000e-02 0.0
3.000000e-01 1.250000e-02 0.0
3.125000e-01 1.250000e-02 0.0
3.250000e-01 1.250000e-02 0.0
3.375000e-01 1.250000e-02 0.0
3.500000e-01 1.250000e-02 0.0
3.625000e-01 1.250000e-02 0.0
3.750000e-01 1.250000e-02 0.0
3.875000e-01 1.250000e-02 0.0
4.000000e-01 1.250000e-02 0.0
4.125000e-01 1.250000e-02 0.0
4.250000e-01 1.250000e-02 0.0
4.375000e-01 1.250000e-02 0.0
4.500000e-01 1.250000e-02 0.0
4.625000e-01 1.250000e-02 0.0
4.750000e-01 1.250000e-02 0.0
4.875000e-01 1.250000e-02 0.0
5.000000e-01 1.250000e-02 0.0
5.125000e-01 1.250000e-02 0.0
5.250000e-01 1.250000e-02 0.0
5.375000e-01 1.250000e-02 0.0
5.500000e-01 1.250000e-02 0.0
5.625000e-01 1.250000e-02 0.0
5.750000e-01 1.250000e-02 0.0
5.875000e-01 1.250000e-02 0.0
6.000000e-01 1.250000e-02 0.0
6.125000e-01 1.250000e-02 0.0
6.250000e-01 1.250000e-02 0.0
6.375000e-01 1.250000e-02 0.0
6.500000e-01 1.250000e-02 0.0
6.625000e-01 1.250000e-02 0.0
6.750000e-01 1.250000e-02 0.0
6.875000e-01 1.250000e-02 0.0
7.000000e-01 1.250000e-02 0.0
7.125000e-01 1.250000e-02 0.0
7.250000e-01 1.250000e-02 0.0
7.375000e-01 1.250000e-02 0.0
7.500000e-01 1.250000e-02 0.0
7.625000e-01 1.250000e-02 0.0
7.750000e-01 1.250000e-02 0.0
7.875000e-01 1.250000e-02 0.0
8.000000e-01 1.250000e-02 0.0
8.125000e-01 1.250000e-02 0.0
8.250000e-01 1.250000e-02 0.0
8.375000e-01 1.250000e-02 0.0
8.500000e-01 1.250000e-02 0.0
8.625000e-01 1.250000e-02 0.0
8.750000e-01 1.250000e-02 0.0
8.875000e-01 1.250000e-02 0.0
9.000000e-01 1.250000e-02 0.0
9.125000e-01 1.250000e-02 0.0
9.250000e-01 1.250000e-02 0.0
9.375000e-01 1.250000e-02 0.0
9.500000e-01 1.250000e-02 0.0
9.625000e-01 1.250000e-02 0.0
9.750000e-01 1.250000e-02 0.0
9.875000e-01 1.250000e-02 0.0
1.000000e+00 1.250000e-02 0.0
0.000000e+00 2.500000e-02 0.0
1.250000e-02 2.500000e-02 0.0
2.500000e-02 2.500000e-02 0.0
3.750000e-02 2.500000e-02 0.0
5.000000e-02 2.500000e-02 0.0
6.250000e-02 2.500000e-02 0.0
7.500000e-02 2.500000e-02 0.0
8.750000e-02 2.500000e-02 0.0
1.000000e-01 2.500000e-02 0.0
1.125000e-01 2.500000e-02 0.0
1.250000e-01 2.500000e-02 0.0
1.375000e-01 2.500000e-02 0.0
1.500000e-01 2.500000e-02 0.0
1.625000e-01 2.500000e-02 0.0
1.750000e-01 2.500000e-02 0.0
1.875000e-01 2.500000e-02 0.0
2.000000e-01 2.500000e-02 0.0
2.125000e-01 2.500000e-02 0.0
2.250000e-01 2.500000e-02 0.0
2.375000e-01 2.500000e-02 0.0
2.500000e-01 2.500000e-02 0.0
2.625000e-01 2.500000e-02 0.0
2.750000e-01 2.500000e-02 0.0
2.875000e-01 2.500000e-02 0.0
3.000000e-01 2.500000e-02 0.0
3.125000e-01 2.500000e-02 0.0
3.250000e-01 2.500000e-02 0.0
3.375000e-01 2.500000e-02 0.0
3.500000e-01 2.500000e-02 0.0
3.625000e-01 2.500000e-02 0.0
3.750000e-01 2.500000e-02 0.0
3.875000e-01 2.500000e-02 0.0
4.000000e-01 2.500000e-02 0.0
4.125000e-01 2.500000e-02 0.0
4.250000e-01 2.500000e-02 0.0
4.375000e-01 2.500000e-02 0.0
4.500000e-01 2.500000e-02 0.0
4.625000e-01 2.500000e-02 0.0
4.750000e-01 2.500000e-02 0.0
4.875000e-01 2.500000e-02 0.0
5.000000e-01 2.500000e-02 0.0
5.125000e-01 2.500000e-02 0.0
5.250000e-01 2.500000e-02 0.0
5.375000e-01 2.500000e-02 0.0
5.500000e-01 2.500000e-02 0.0
5.625000e-01 2.500000e-02 0.0
5.750000e-01 2.500000e-02 0.0
5.875000e-01 2.500000e-02 0.0
6.000000e-01 2.500000e-02 0.0
6.125000e-01 2.500000e-02 0.0
6.250000e-01 2.500000e-02 0.0
6.375000e-01 2.500000e-02 0.0
6.500000e-01 2.500000e-02 0.0
6.625000e-01 2.500000e-02 0.0
6.750000e-01 2.500000e-02 0.0
6.875000e-01 2.500000e-02 0.0
7.000000e-01 2.500000e-02 0.0
7.125000e-01 2.500000e-02 0.0
7.250000e-01 2.500000e-02 0.0
7.375000e-01 2.500000e-02 0.0
7.500000e-01 2.500000e-02 0.0
7.625000e-01 2.500000e-02 0.0
7.750000e-01 2.500000e-02 0.0
7.875000e-01 2.500000e-02 0.0
8.000000e-01 2.500000e-02 0.0
8.125000e-01 2.500000e-02 0.0
8.250000e-01 2.500000e-02 0.0
8.375000e-01 2.500000e-02 0.0
8.500000e-01 2.500000e-02 0.0
8.625000e-01 2.500000e-02 0.0
8.750000e-01 2.500000e-02 0.0
8.875000e-01 2.500000e-02 0.0
9.000000e-01 2.500000e-02 0.0
9.125000e-01 2.500000e-02 0.0
9.250000e-01 2.500000e-02 0.0
9.375000e-01 2.500000e-02 0.0
9.500000e-01 2.500000e-02 0.0
9.625000e-01 2.500000e-02 0.0
9.750000e-01 2.500000e-02 0.0
9.875000e-01 2.500000e-02 0.0
1.000000e+00 2.500000e-02 0.0
0.000000e+00 3.750000e-02 0.0
1.250000e-02 3.750000e-02 0.0
2.500000e-02 3.750000e-02 0.0
3.750000e-02 3.750000e-02 0.0
5.000000e-02 3.750000e-02 0.0
6.250000e-02 3.750000e-02 0.0
7.500000e-02 3.750000e-02 0.0
8.750000e-02 3.750000e-02 0.0
1.000000e-01 3.750000e-02 0.0
1.125000e-01 3.750000e-02 0.0
1.250000e-01 3.750000e-02 0.0
1.375000e-01 3.750000e-02 0.0
1.500000e-01 3.750000e-02 0.0
1.625000e-01 3.750000e-02 0.0
1.750000e-01 3.750000e-02 0.0
1.875000e-01 3.750000e-02 0.0
2.000000e-01 3.750000e-02 0.0
2.125000e-01 3.750000e-02 0.0
2.250000e-01 3.750000e-02 0.0
2.375000e-01 3.750000e-02 0.0
2.500000e-01 3.750000e-02 0.0
2.625000e-01 3.750000e-02 0.0
2.750000e-01 3.750000e-02 0.0
2.875000e-01 3.750000e-02 0.0
3.000000e-01 3.750000e-02 0.0
3.125000e-01 3.750000e-02 0.0
3.250000e-01 3.750000e-02 0.0
3.375000e-01 3.750000e-02 0.0
3.500000e-01 3.750000e-02 0.0
3.625000e-01 3.750000e-02 0.0
3.750000e-01 3.750000e-02 0.0
3.875000e-01 3.750000e-02 0.0
4.000000e-01 3.750000e-02 0.0
4.125000e-01 3.750000e-02 0.0
4.250000e-01 3.750000e-02 0.0
4.375000e-01 3.750000e-02 0.0
4.500000e-01 3.750000e-02 0.0
4.625000e-01 3.750000e-02 0.0
4.750000e-01 3.750000e-02 0.0
4.875000e-01 3.750000e-02 0.0
5.000000e-01 3.750000e-02 0.0
5.125000e-01 3.750000e-02 0.0
5.250000e-01 3.750000e-02 0.0
5.375000e-01 3.750000e-02 0.0
5.500000e-01 3.750000e-02 0.0
5.625000e-01 3.750000e-02 0.0
5.750000e-01 3.750000e-02 0.0
5.875000e-01 3.750000e-02 0.0
6.000000e-01 3.750000e-02 0.0
6.125000e-01 3.750000e-02 0.0
6.250000e-01 3.750000e-02 0.0
6.375000e-01 3.750000e-02 0.0
6.500000e-01 3.750000e-02 0.0
6.625000e-01 3.750000e-02 0.0
6.750000e-01 3.750000e-02 0.0
6.875000e-01 3.750000e-02 0.0
7.000000e-01 3.750000e-02 0.0
7.125000e-01 3.750000e-02 0.0
7.250000e-01 3.750000e-02 0.0
7.375000e-01 3.750000e-02 0.0
7.500000e-01 3.750000e-02 0.0
7.625000e-01 3.750000e-02 0.0
7.750000e-01 3.750000e-02 0.0
7.875000e-01 3.750000e-02 0.0
8.000000e-01 3.750000e-02 0.0
8.125000e-01 3.750000e-02 0.0
8.250000e-01 3.750000e-02 0.0
8.375000e-01 3.750000e-02 0.0
8.500000e-01 3.750000e-02 0.0
8.625000e-01 3.750000e-02 0.0
8.750000e-01 3.750000e-02 0.0
8.875000e-01 3.750000e-02 0.0
9.000000e-01 3.750000e-02 0.0
9.125000e-01 3.750000e-02 0.0
9.250000e-01 3.750000e-02 0.0
9.375000e-01 3.750000e-02 0.0
9.500000e-01 3.750000e-02 0.0
9.625000e-01 3.750000e-02 0.0
9.750000e-01 3.750000e-02 0.0
9.875000e-01 3.750000e-02 0.0
1.000000e+00 3.750000e-02 0.0
0.000000e+00 5.000000e-02 0.0
1.250000e-02 5.000000e-02 0.0
2.500000e-02 5.000000e-02 0.0
3.750000e-02 5.000000e-02 0.0
5.000000e-02 5.000000e-02 0.0
[...]
CELL_DATA 6400
SCALARS Temperature double 1
LOOKUP_TABLE default
5.000000e-01
1.721040e-01
7.781147e-02
4.277899e-02
2.648537e-02
1.746436e-02
1.195973e-02
8.408802e-03
6.031191e-03
4.394286e-03
3.242517e-03
2.417809e-03
1.818777e-03
1.378450e-03
1.051504e-03
8.066431e-04
6.218838e-04
4.815619e-04
3.743751e-04
2.920799e-04
2.286071e-04
1.794504e-04
1.412394e-04
1.114367e-04
8.812064e-05
6.982793e-05
5.543918e-05
4.409421e-05
3.512938e-05
2.803082e-05
2.239932e-05
1.792373e-05
1.436087e-05
1.152020e-05
9.252022e-06
7.438463e-06
5.986525e-06
4.822680e-06
3.888687e-06
3.138332e-06
2.534881e-06
2.049096e-06
1.657668e-06
1.341987e-06
1.087178e-06
8.813373e-07
7.149252e-07
5.802894e-07
4.712852e-07
3.829728e-07
3.113779e-07
2.532995e-07
2.061576e-07
1.678707e-07
1.367582e-07
1.114623e-07
9.088483e-08
7.413748e-08
6.050078e-08
4.939182e-08
4.033803e-08
3.295600e-08
2.693455e-08
2.202092e-08
1.800973e-08
1.473399e-08
1.205789e-08
9.870882e-09
8.082957e-09
6.620806e-09
5.424684e-09
4.445887e-09
3.644701e-09
2.988752e-09
2.451694e-09
2.012229e-09
1.653558e-09
1.363583e-09
1.136900e-09
9.813902e-10
8.278960e-01
5.000000e-01
2.972516e-01
1.837332e-01
1.191124e-01
8.033437e-02
5.581632e-02
3.965957e-02
2.867398e-02
2.102208e-02
1.558920e-02
1.167129e-02
8.809134e-03
6.695358e-03
5.119704e-03
3.935720e-03
3.039809e-03
2.357703e-03
1.835548e-03
1.433892e-03
1.123582e-03
8.829004e-04
6.955600e-04
5.492660e-04
4.346868e-04
3.447029e-04
2.738579e-04
2.179521e-04
1.737408e-04
1.387081e-04
1.108971e-04
8.878071e-05
7.116453e-05
5.711152e-05
4.588498e-05
3.690436e-05
2.971127e-05
2.394300e-05
1.931210e-05
1.559030e-05
1.259611e-05
1.018493e-05
8.241473e-06
6.673628e-06
5.407744e-06
4.384851e-06
3.557675e-06
2.888281e-06
2.346195e-06
1.906910e-06
1.550704e-06
1.261686e-06
1.027044e-06
8.364401e-07
6.815237e-07
5.555467e-07
4.530510e-07
3.696189e-07
3.016727e-07
2.463127e-07
2.011876e-07
1.643895e-07
1.343695e-07
1.098693e-07
8.986615e-08
7.352860e-08
6.018006e-08
4.926984e-08
4.034951e-08
3.305373e-08
2.708472e-08
2.219973e-08
1.820075e-08
1.492638e-08
1.224523e-08
1.005110e-08
8.260186e-09
6.812172e-09
5.680128e-09
4.903482e-09
9.221885e-01
7.027484e-01
5.000000e-01
3.479413e-01
2.427909e-01
1.715348e-01
1.229530e-01
8.933041e-02
6.567724e-02
4.878402e-02
3.655738e-02
2.760555e-02
2.098545e-02
1.604683e-02
1.233433e-02
9.524671e-03
7.385559e-03
5.748265e-03
4.489073e-03
3.516494e-03
2.762365e-03
2.175547e-03
1.717446e-03
1.358770e-03
1.077177e-03
8.555468e-04
6.807064e-04
5.424812e-04
4.329850e-04
3.460851e-04
2.769985e-04
2.219842e-04
1.781088e-04
1.430669e-04
1.150420e-04
9.260048e-05
7.460830e-05
6.016688e-05
4.856293e-05
3.922940e-05
3.171474e-05
2.565889e-05
2.077435e-05
1.683124e-05
1.364557e-05
1.106986e-05
8.985789e-06
7.298331e-06
5.931087e-06
4.822577e-06
3.923281e-06
3.193278e-06
2.600359e-06
2.118517e-06
1.726733e-06
1.408014e-06
1.148604e-06
9.373673e-07
7.652782e-07
6.250197e-07
5.106550e-07
4.173651e-07
3.412358e-07
2.790863e-07
2.283303e-07
1.868640e-07
1.529751e-07
1.252695e-07
1.026114e-07
8.407529e-08
6.890652e-08
5.648968e-08
4.632271e-08
3.799620e-08
3.117680e-08
2.559499e-08
2.103808e-08
1.735302e-08
1.447162e-08
1.249460e-08
9.572210e-01
8.162668e-01
6.520587e-01
5.000000e-01
3.757103e-01
2.803394e-01
2.092178e-01
1.567081e-01
1.179686e-01
8.928666e-02
6.793802e-02
5.195420e-02
3.991673e-02
3.080032e-02
2.385987e-02
1.855029e-02
1.447016e-02
1.132188e-02
8.883445e-03
6.988231e-03
5.510502e-03
4.354890e-03
3.448711e-03
2.736328e-03
2.174981e-03
1.731682e-03
1.380895e-03
1.102785e-03
8.819026e-04
7.061800e-04
5.661652e-04
4.544379e-04
3.651595e-04
2.937260e-04
2.364998e-04
1.906017e-04
1.537483e-04
1.241261e-04
1.002924e-04
8.109788e-05
6.562542e-05
5.314253e-05
4.306324e-05
3.491832e-05
2.833157e-05
2.300106e-05
1.868422e-05
1.518595e-05
1.234924e-05
1.004757e-05
8.178932e-06
6.660991e-06
5.427262e-06
4.424004e-06
3.607750e-06
2.943320e-06
2.402220e-06
1.961357e-06
1.602004e-06
1.308968e-06
1.069911e-06
8.748120e-07
7.155273e-07
5.854338e-07
4.791432e-07
3.922699e-07
3.212425e-07
2.631515e-07
2.156256e-07
1.767311e-07
1.448908e-07
1.188179e-07
9.746204e-08
7.996628e-08
6.563269e-08
5.389673e-08
4.431285e-08
3.656044e-08
3.049730e-08
2.633644e-08
9.735146e-01
8.808876e-01
7.572091e-01
6.242897e-01
5.000000e-01
3.933328e-01
3.063559e-01
2.374868e-01
1.838206e-01
1.423344e-01
1.103697e-01
8.575572e-02
6.678402e-02
5.213454e-02
4.079675e-02
3.200006e-02
2.515736e-02
1.982098e-02
1.564893e-02
1.237931e-02
9.811014e-03
7.789201e-03
6.194283e-03
4.933651e-03
3.935388e-03
3.143501e-03
2.514281e-03
2.013528e-03
1.614422e-03
1.295883e-03
1.041307e-03
8.375945e-04
6.743869e-04
5.434816e-04
4.383717e-04
3.538871e-04
2.859138e-04
2.311738e-04
1.870513e-04
1.514566e-04
1.227180e-04
9.949685e-05
8.071979e-05
6.552542e-05
5.322170e-05
4.325214e-05
3.516878e-05
2.861077e-05
2.328715e-05
1.896314e-05
1.544913e-05
1.259189e-05
1.026750e-05
8.375652e-06
6.835139e-06
5.580141e-06
4.557292e-06
3.723293e-06
3.042996e-06
2.487854e-06
2.034667e-06
1.664571e-06
1.362222e-06
1.115132e-06
9.131324e-07
7.479397e-07
6.128039e-07
5.022214e-07
4.117035e-07
3.375878e-07
2.768846e-07
2.271532e-07
1.864003e-07
1.529986e-07
1.256220e-07
1.031974e-07
8.487762e-08
7.005317e-08
5.845525e-08
5.049426e-08
9.825356e-01
9.196656e-01
8.284652e-01
7.196606e-01
6.066672e-01
5.000000e-01
4.055847e-01
3.255125e-01
2.594775e-01
2.059915e-01
1.631615e-01
1.291055e-01
1.021389e-01
8.083415e-02
6.401952e-02
5.075088e-02
4.027633e-02
3.200126e-02
2.545730e-02
2.027643e-02
1.616968e-02
1.291021e-02
1.031989e-02
8.258716e-03
6.616514e-03
5.306507e-03
4.260240e-03
3.423641e-03
2.753941e-03
2.217263e-03
1.786736e-03
1.441016e-03
1.163130e-03
9.395604e-04
7.595303e-04
6.144363e-04
4.974024e-04
4.029275e-04
3.266052e-04
2.649024e-04
2.149839e-04
1.745715e-04
1.418338e-04
1.152966e-04
9.377251e-05
7.630436e-05
6.211987e-05
5.059554e-05
4.122757e-05
3.360864e-05
2.740916e-05
2.236229e-05
1.825186e-05
1.490264e-05
1.217249e-05
9.946055e-06
8.129673e-06
6.647245e-06
5.436913e-06
4.448373e-06
3.640695e-06
2.980561e-06
2.440836e-06
1.999414e-06
1.638276e-06
1.342730e-06
1.100790e-06
9.026744e-07
7.403998e-07
6.074453e-07
4.984842e-07
4.091637e-07
3.359266e-07
2.758665e-07
2.266133e-07
1.862479e-07
1.532546e-07
1.265438e-07
1.056381e-07
9.128382e-08
9.880403e-01
9.441837e-01
8.770470e-01
7.907822e-01
6.936441e-01
5.944153e-01
5.000000e-01
4.146490e-01
3.402649e-01
2.771017e-01
2.244434e-01
1.811078e-01
1.457673e-01
1.171291e-01
9.402356e-02
7.543711e-02
6.051500e-02
4.854925e-02
3.896055e-02
3.127876e-02
2.512452e-02
2.019293e-02
1.623956e-02
1.306878e-02
1.052421e-02
8.480883e-03
6.838963e-03
5.518680e-03
4.456280e-03
3.600787e-03
2.911418e-03
2.355525e-03
1.906954e-03
1.544740e-03
1.252062e-03
1.015419e-03
8.239594e-04
6.689616e-04
5.434058e-04
4.416401e-04
3.591099e-04
2.921423e-04
2.377736e-04
1.936105e-04
1.577192e-04
1.285360e-04
1.047960e-04
8.547488e-05
6.974315e-05
5.692840e-05
4.648534e-05
3.797155e-05
3.102783e-05
2.536245e-05
2.073832e-05
1.696270e-05
1.387878e-05
1.135898e-05
9.299406e-06
7.615455e-06
6.238182e-06
5.111386e-06
4.189234e-06
3.434339e-06
2.816187e-06
2.309867e-06
1.895033e-06
1.555065e-06
1.276380e-06
1.047874e-06
8.604645e-07
7.067257e-07
5.805811e-07
4.770624e-07
3.921142e-07
3.224507e-07
2.654753e-07
2.193230e-07
1.831831e-07
1.583599e-07
9.915912e-01
9.603404e-01
9.106696e-01
8.432919e-01
7.625132e-01
6.744875e-01
5.853510e-01
5.000000e-01
4.216626e-01
3.520204e-01
2.915747e-01
2.400470e-01
1.967115e-01
1.606342e-01
1.308284e-01
1.063452e-01
8.632102e-02
6.999669e-02
5.672061e-02
4.594268e-02
3.720397e-02
3.012499e-02
2.439391e-02
1.975577e-02
1.600280e-02
1.296619e-02
1.050901e-02
8.520380e-03
6.910576e-03
5.607065e-03
4.551225e-03
3.695695e-03
3.002210e-03
2.439854e-03
1.983649e-03
1.613402e-03
1.312792e-03
1.068619e-03
8.702049e-04
7.089060e-04
5.777258e-04
4.709966e-04
3.841260e-04
3.133908e-04
2.557716e-04
2.088183e-04
1.705422e-04
1.393282e-04
1.138640e-04
9.308324e-05
7.611860e-05
6.226463e-05
5.094719e-05
4.169888e-05
3.413902e-05
2.795744e-05
2.290132e-05
1.876455e-05
1.537897e-05
1.260740e-05
1.033786e-05
8.478907e-06
6.955866e-06
5.707714e-06
4.684581e-06
3.845693e-06
3.157708e-06
2.593346e-06
2.130288e-06
1.750265e-06
1.438319e-06
1.182201e-06
9.718809e-07
7.991471e-07
6.572912e-07
5.408723e-07
4.455895e-07
3.683554e-07
3.078419e-07
2.662598e-07
9.939688e-01
9.713260e-01
9.343228e-01
8.820314e-01
8.161794e-01
7.405225e-01
6.597351e-01
5.783374e-01
5.000000e-01
4.272756e-01
3.616413e-01
3.037005e-01
2.534288e-01
2.103993e-01
1.739595e-01
1.433586e-01
1.178312e-01
9.664771e-02
7.914212e-02
6.472360e-02
5.287881e-02
4.316849e-02
3.522098e-02
2.872458e-02
2.341958e-02
1.909078e-02
1.556055e-02
1.268275e-02
1.033748e-02
8.426548e-03
6.869657e-03
5.601247e-03
4.567830e-03
3.725803e-03
3.039638e-03
2.480399e-03
2.024527e-03
1.652843e-03
1.349733e-03
1.102489e-03
9.007670e-04
7.361440e-04
6.017631e-04
4.920404e-04
4.024279e-04
3.292204e-04
2.693989e-04
2.205030e-04
1.805267e-04
1.478344e-04
1.210919e-04
9.921083e-05
8.130283e-05
6.664283e-05
5.463875e-05
4.480702e-05
3.675256e-05
3.015254e-05
2.474306e-05
2.030833e-05
1.667190e-05
1.368939e-05
1.124268e-05
9.235081e-06
7.587439e-06
6.234933e-06
5.124470e-06
4.212552e-06
3.463533e-06
2.848195e-06
2.342585e-06
1.927062e-06
1.585519e-06
1.304758e-06
1.073982e-06
8.844261e-07
7.291576e-07
6.032048e-07
5.044549e-07
4.365659e-07
9.956057e-01
9.789779e-01
9.512160e-01
9.107133e-01
8.576656e-01
7.940085e-01
7.228983e-01
6.479796e-01
5.727244e-01
5.000000e-01
4.318871e-01
3.696856e-01
3.140302e-01
2.650468e-01
2.225073e-01
1.859622e-01
1.548424e-01
1.285325e-01
1.064196e-01
8.792375e-02
7.251462e-02
5.971899e-02
4.912223e-02
4.036599e-02
3.314390e-02
2.719618e-02
2.230408e-02
1.828436e-02
1.498422e-02
1.227669e-02
1.005656e-02
8.236900e-03
6.745972e-03
5.524708e-03
4.524528e-03
3.705519e-03
3.034922e-03
2.485868e-03
2.036330e-03
1.668264e-03
1.366889e-03
1.120104e-03
9.180023e-04
7.524767e-04
6.168913e-04
5.058163e-04
4.148081e-04
3.402305e-04
2.791078e-04
2.290045e-04
1.879274e-04
1.542447e-04
1.266207e-04
1.039618e-04
8.537225e-05
7.011864e-05
5.760016e-05
4.732459e-05
3.888861e-05
3.196169e-05
2.627291e-05
2.160017e-05
1.776133e-05
1.460706e-05
1.201485e-05
9.884188e-06
8.132612e-06
6.692442e-06
5.508126e-06
4.534058e-06
3.732789e-06
3.073570e-06
2.531147e-06
2.084797e-06
1.717547e-06
1.415603e-06
1.168048e-06
9.670625e-07
8.093679e-07
7.008969e-07
9.967575e-01
9.844108e-01
9.634426e-01
9.320620e-01
8.896303e-01
8.368385e-01
7.755566e-01
7.084253e-01
6.383587e-01
5.681129e-01
5.000000e-01
4.357557e-01
3.765300e-01
3.229540e-01
2.752418e-01
2.333003e-01
1.968274e-01
1.653943e-01
1.385076e-01
1.156542e-01
9.633154e-02
8.006695e-02
6.642790e-02
5.502694e-02
4.552255e-02
3.761739e-02
3.105520e-02
2.561687e-02
2.111629e-02
1.739625e-02
1.432452e-02
1.179032e-02
9.701143e-03
7.979909e-03
6.562563e-03
5.395970e-03
4.436120e-03
3.646616e-03
2.997387e-03
2.463618e-03
2.024844e-03
1.664203e-03
1.367809e-03
1.124231e-03
9.240652e-04
7.595768e-04
6.244063e-04
5.133261e-04
4.220396e-04
3.470162e-04
2.853551e-04
2.346729e-04
1.930117e-04
1.587630e-04
1.306054e-04
1.074534e-04
8.841537e-05
7.275861e-05
5.988122e-05
4.928867e-05
4.057458e-05
3.340501e-05
2.750554e-05
2.265060e-05
1.865478e-05
1.536567e-05
1.265795e-05
1.042860e-05
8.592886e-06
7.081123e-06
5.836000e-06
4.810374e-06
3.965474e-06
3.269428e-06
2.696100e-06
2.224220e-06
1.836945e-06
1.522224e-06
1.275090e-06
1.104995e-06
9.975822e-01
9.883287e-01
9.723945e-01
9.480458e-01
9.142443e-01
8.708945e-01
8.188922e-01
7.599530e-01
6.962995e-01
6.303144e-01
5.642443e-01
5.000000e-01
4.390569e-01
3.824385e-01
3.307552e-01
2.842724e-01
2.429887e-01
2.067105e-01
1.751178e-01
1.478162e-01
1.243772e-01
1.043669e-01
8.736597e-02
7.298141e-02
6.085394e-02
5.066085e-02
4.211642e-02
3.497052e-02
2.900623e-02
2.403685e-02
1.990269e-02
1.646794e-02
1.361755e-02
1.125450e-02
9.297175e-03
7.677159e-03
6.337218e-03
5.229576e-03
4.314423e-03
3.558638e-03
2.934706e-03
2.419794e-03
1.994970e-03
1.644558e-03
1.355583e-03
1.117315e-03
9.208829e-04
7.589612e-04
6.254993e-04
5.155032e-04
4.248522e-04
3.501471e-04
2.885846e-04
2.378531e-04
1.960472e-04
1.615963e-04
1.332058e-04
1.098091e-04
9.052703e-05
7.463543e-05
6.153751e-05
5.074160e-05
4.184263e-05
3.450684e-05
2.845927e-05
2.347337e-05
1.936247e-05
1.597277e-05
1.317755e-05
1.087237e-05
8.971171e-06
7.403054e-06
6.109590e-06
5.042675e-06
4.162798e-06
3.437763e-06
2.842056e-06
2.357447e-06
1.976563e-06
1.714241e-06
9.981812e-01
9.911909e-01
9.790146e-01
9.600833e-01
9.332160e-01
8.978611e-01
8.542327e-01
8.032885e-01
7.465712e-01
6.859698e-01
6.234700e-01
5.609431e-01
5.000000e-01
4.419140e-01
3.876017e-01
3.376450e-01
2.923375e-01
2.517407e-01
2.157414e-01
1.841044e-01
1.565157e-01
1.326183e-01
1.120386e-01
9.440554e-02
7.936386e-02
6.658215e-02
5.575751e-02
4.661744e-02
3.891987e-02
3.245201e-02
2.702841e-02
2.248859e-02
1.869456e-02
1.552824e-02
1.288905e-02
1.069168e-02
8.863945e-03
7.344993e-03
6.083635e-03
5.036907e-03
4.168820e-03
3.449278e-03
2.853151e-03
2.359484e-03
1.950821e-03
1.612641e-03
1.332870e-03
1.101482e-03
9.101536e-04
7.519819e-04
6.212442e-04
5.131991e-04
4.239196e-04
3.501551e-04
2.892154e-04
2.388749e-04
1.972930e-04
1.629477e-04
1.345809e-04
1.111528e-04
9.180391e-05
7.582432e-05
6.262741e-05
5.172862e-05
4.272771e-05
3.529411e-05
2.915481e-05
2.408434e-05
1.989652e-05
1.643761e-05
1.358064e-05
1.122079e-05
9.271537e-06
7.661508e-06
6.331973e-06
5.235014e-06
4.332626e-06
3.597699e-06
3.019508e-06
2.621012e-06
9.986216e-01
9.933046e-01
9.839532e-01
9.691997e-01
9.478655e-01
9.191658e-01
8.828709e-01
8.393658e-01
7.896007e-01
7.349532e-01
6.770460e-01
6.175615e-01
5.580860e-01
5.000000e-01
4.444163e-01
3.921607e-01
3.437839e-01
2.995928e-01
2.596923e-01
2.240292e-01
1.924344e-01
1.646599e-01
1.404087e-01
1.193596e-01
1.011855e-01
8.556588e-02
7.219650e-02
6.079445e-02
5.110134e-02
4.288450e-02
3.593671e-02
3.007525e-02
2.514024e-02
2.099275e-02
1.751274e-02
1.459702e-02
1.215727e-02
1.011818e-02
8.415752e-03
6.995747e-03
5.812326e-03
4.826832e-03
4.006735e-03
3.324703e-03
2.757815e-03
2.286873e-03
1.895820e-03
1.571238e-03
1.301932e-03
1.078564e-03
8.933546e-04
7.398278e-04
6.125956e-04
5.071782e-04
4.198529e-04
3.475278e-04
2.876358e-04
2.380469e-04
1.969938e-04
1.630112e-04
1.348841e-04
1.116056e-04
9.234142e-05
7.640035e-05
6.320989e-05
5.229596e-05
4.326602e-05
3.579510e-05
2.961420e-05
2.450067e-05
2.027027e-05
1.677054e-05
1.387536e-05
1.148050e-05
9.500046e-06
7.863782e-06
6.515975e-06
5.416944e-06
4.551383e-06
3.954367e-06
9.989485e-01
9.948803e-01
9.876657e-01
9.761401e-01
9.592032e-01
9.359805e-01
9.059764e-01
8.691716e-01
8.260405e-01
7.774927e-01
7.247582e-01
6.692448e-01
6.123983e-01
5.555837e-01
5.000000e-01
4.466302e-01
3.962226e-01
3.492960e-01
3.061618e-01
2.669543e-01
2.316653e-01
2.001781e-01
1.722980e-01
1.477791e-01
1.263457e-01
1.077096e-01
9.158283e-02
7.768663e-02
6.575786e-02
5.555271e-02
4.684867e-02
3.944520e-02
3.316344e-02
2.784522e-02
2.335174e-02
1.956194e-02
1.637085e-02
1.368784e-02
1.143505e-02
9.545785e-03
7.963144e-03
6.638694e-03
5.531328e-03
4.606238e-03
3.834009e-03
3.189831e-03
2.652810e-03
2.205381e-03
1.832794e-03
1.522681e-03
1.264681e-03
1.050123e-03
8.717594e-04
7.235337e-04
6.003921e-04
4.981187e-04
4.131991e-04
3.427054e-04
2.841996e-04
2.356527e-04
1.953768e-04
1.619682e-04
1.342601e-04
1.112830e-04
9.223143e-05
7.643650e-05
6.334283e-05
5.248946e-05
4.349380e-05
3.603843e-05
2.986002e-05
2.474021e-05
2.049793e-05
1.698324e-05
1.407228e-05
1.166367e-05
9.676873e-06
8.054668e-06
6.775618e-06
5.892669e-06
9.991934e-01
9.960643e-01
9.904753e-01
9.814497e-01
9.679999e-01
9.492491e-01
9.245629e-01
8.936548e-01
8.566414e-01
8.140378e-01
7.666997e-01
7.157276e-01
6.623550e-01
6.078393e-01
5.533698e-01
5.000000e-01
4.486061e-01
3.998697e-01
3.542790e-01
3.121437e-01
2.736179e-01
2.387273e-01
2.073965e-01
1.794749e-01
1.547593e-01
1.330137e-01
1.139846e-01
9.741345e-02
8.304578e-02
7.063747e-02
5.995927e-02
5.079934e-02
4.296453e-02
3.628071e-02
3.059233e-02
2.576161e-02
2.166729e-02
1.820331e-02
1.527743e-02
1.280973e-02
1.073130e-02
8.982912e-03
7.513843e-03
6.280760e-03
5.246750e-03
4.380440e-03
3.655220e-03
3.048565e-03
2.541441e-03
2.117787e-03
1.764069e-03
1.468904e-03
1.222720e-03
1.017483e-03
8.464559e-04
7.039917e-04
5.853632e-04
4.866155e-04
4.044423e-04
3.360810e-04
2.792252e-04
2.319500e-04
1.926499e-04
1.599864e-04
1.328439e-04
1.102933e-04
9.156078e-05
7.600231e-05
6.308187e-05
5.235355e-05
4.344652e-05
3.605245e-05
2.991512e-05
2.482185e-05
2.059659e-05
1.709498e-05
1.420223e-05
1.183702e-05
9.969875e-06
8.679819e-06
9.993781e-01
9.969602e-01
9.926144e-01
9.855298e-01
9.748426e-01
9.597237e-01
9.394850e-01
9.136790e-01
8.821688e-01
8.451576e-01
8.031726e-01
7.570113e-01
7.076625e-01
6.562161e-01
6.037774e-01
5.513939e-01
5.000000e-01
4.503832e-01
4.031671e-01
3.588109e-01
3.176190e-01
2.797586e-01
2.452808e-01
2.141431e-01
1.862308e-01
1.613773e-01
1.393807e-01
1.200186e-01
1.030590e-01
8.827003e-02
7.542580e-02
6.431137e-02
5.472575e-02
4.648367e-02
3.941634e-02
3.337158e-02
2.821332e-02
2.382081e-02
2.008757e-02
1.692027e-02
1.423748e-02
1.196846e-02
1.005204e-02
8.435471e-03
7.073426e-03
5.927066e-03
4.963196e-03
4.153511e-03
3.473926e-03
2.903985e-03
2.426347e-03
2.026334e-03
1.691543e-03
1.411501e-03
1.177382e-03
9.817549e-04
8.183672e-04
6.819654e-04
5.681386e-04
4.731865e-04
3.940071e-04
3.280022e-04
2.729965e-04
2.271700e-04
1.890012e-04
1.572183e-04
1.307591e-04
1.087365e-04
9.041035e-05
7.516306e-05
6.247963e-05
5.193075e-05
4.315875e-05
3.586602e-05
2.980567e-05
2.477484e-05
2.061213e-05
1.720350e-05
1.450920e-05
1.264590e-05
9.995184e-01
9.976423e-01
9.942517e-01
9.886781e-01
9.801790e-01
9.679987e-01
9.514507e-01
9.300033e-01
9.033523e-01
8.714675e-01
8.346057e-01
7.932895e-01
7.482593e-01
7.004072e-01
6.507040e-01
6.001303e-01
5.496168e-01
5.000000e-01
4.519920e-01
4.061663e-01
3.629546e-01
3.226540e-01
2.854397e-01
2.513819e-01
2.204643e-01
1.926022e-01
1.676594e-01
1.454641e-01
1.258209e-01
1.085225e-01
9.335763e-02
8.011763e-02
6.860151e-02
5.861911e-02
4.999327e-02
4.256103e-02
3.617407e-02
3.069867e-02
2.601515e-02
2.201719e-02
1.861086e-02
1.571368e-02
1.325349e-02
1.116749e-02
9.401191e-03
7.907505e-03
6.645848e-03
5.581343e-03
4.684098e-03
3.928547e-03
3.292874e-03
2.758497e-03
2.309618e-03
1.932825e-03
1.616752e-03
1.351779e-03
1.129773e-03
9.438677e-04
7.882709e-04
6.581034e-04
5.492574e-04
4.582784e-04
3.822631e-04
3.187735e-04
2.657637e-04
2.215182e-04
1.845990e-04
1.538017e-04
1.281180e-04
1.067042e-04
8.885468e-05
7.397951e-05
6.158599e-05
5.126304e-05
4.266883e-05
3.552198e-05
2.959840e-05
2.474028e-05
2.089501e-05
1.823312e-05
9.996256e-01
9.981645e-01
9.955109e-01
9.911166e-01
9.843511e-01
9.745427e-01
9.610394e-01
9.432794e-01
9.208579e-01
8.935804e-01
8.614924e-01
8.248822e-01
7.842586e-01
7.403077e-01
6.938382e-01
6.457210e-01
5.968329e-01
5.480080e-01
5.000000e-01
4.534572e-01
4.089089e-01
3.667616e-01
3.273036e-01
2.907144e-01
2.570788e-01
2.264011e-01
1.986215e-01
1.736299e-01
1.512802e-01
1.314016e-01
1.138083e-01
9.830843e-02
8.470955e-02
7.282400e-02
6.247228e-02
5.348547e-02
4.570669e-02
3.899194e-02
3.321025e-02
2.824356e-02
2.398614e-02
2.034397e-02
1.723387e-02
1.458265e-02
1.232620e-02
1.040856e-02
8.781095e-03
7.401654e-03
6.233831e-03
5.246255e-03
4.411971e-03
3.707866e-03
3.114162e-03
2.613972e-03
2.192899e-03
1.838692e-03
1.540939e-03
1.290804e-03
1.080801e-03
9.045917e-04
7.568177e-04
6.329530e-04
5.291784e-04
4.422744e-04
3.695290e-04
3.086596e-04
2.577464e-04
2.151758e-04
1.795927e-04
1.498595e-04
1.250219e-04
1.042797e-04
8.696275e-05
7.251032e-05
6.045503e-05
5.041132e-05
4.207191e-05
3.522118e-05
2.979100e-05
2.602804e-05
9.997079e-01
9.985661e-01
9.964835e-01
9.930118e-01
9.876207e-01
9.797236e-01
9.687212e-01
9.540573e-01
9.352764e-01
9.120763e-01
8.843458e-01
8.521838e-01
8.158956e-01