# vtk DataFile Version 3.0
13.TVD_MUSCL scheme
ASCII
DATASET STRUCTURED_GRID
DIMENSIONS 41 41 1
POINTS 1681 double
0.000000e+000 0.000000e+000 0.0
2.500000e-002 0.000000e+000 0.0
5.000000e-002 0.000000e+000 0.0
7.500000e-002 0.000000e+000 0.0
1.000000e-001 0.000000e+000 0.0
1.250000e-001 0.000000e+000 0.0
1.500000e-001 0.000000e+000 0.0
1.750000e-001 0.000000e+000 0.0
2.000000e-001 0.000000e+000 0.0
2.250000e-001 0.000000e+000 0.0
2.500000e-001 0.000000e+000 0.0
2.750000e-001 0.000000e+000 0.0
3.000000e-001 0.000000e+000 0.0
3.250000e-001 0.000000e+000 0.0
3.500000e-001 0.000000e+000 0.0
3.750000e-001 0.000000e+000 0.0
4.000000e-001 0.000000e+000 0.0
4.250000e-001 0.000000e+000 0.0
4.500000e-001 0.000000e+000 0.0
4.750000e-001 0.000000e+000 0.0
5.000000e-001 0.000000e+000 0.0
5.250000e-001 0.000000e+000 0.0
5.500000e-001 0.000000e+000 0.0
5.750000e-001 0.000000e+000 0.0
6.000000e-001 0.000000e+000 0.0
6.250000e-001 0.000000e+000 0.0
6.500000e-001 0.000000e+000 0.0
6.750000e-001 0.000000e+000 0.0
7.000000e-001 0.000000e+000 0.0
7.250000e-001 0.000000e+000 0.0
7.500000e-001 0.000000e+000 0.0
7.750000e-001 0.000000e+000 0.0
8.000000e-001 0.000000e+000 0.0
8.250000e-001 0.000000e+000 0.0
8.500000e-001 0.000000e+000 0.0
8.750000e-001 0.000000e+000 0.0
9.000000e-001 0.000000e+000 0.0
9.250000e-001 0.000000e+000 0.0
9.500000e-001 0.000000e+000 0.0
9.750000e-001 0.000000e+000 0.0
1.000000e+000 0.000000e+000 0.0
0.000000e+000 2.500000e-002 0.0
2.500000e-002 2.500000e-002 0.0
5.000000e-002 2.500000e-002 0.0
7.500000e-002 2.500000e-002 0.0
1.000000e-001 2.500000e-002 0.0
1.250000e-001 2.500000e-002 0.0
1.500000e-001 2.500000e-002 0.0
1.750000e-001 2.500000e-002 0.0
2.000000e-001 2.500000e-002 0.0
2.250000e-001 2.500000e-002 0.0
2.500000e-001 2.500000e-002 0.0
2.750000e-001 2.500000e-002 0.0
3.000000e-001 2.500000e-002 0.0
3.250000e-001 2.500000e-002 0.0
3.500000e-001 2.500000e-002 0.0
3.750000e-001 2.500000e-002 0.0
4.000000e-001 2.500000e-002 0.0
4.250000e-001 2.500000e-002 0.0
4.500000e-001 2.500000e-002 0.0
4.750000e-001 2.500000e-002 0.0
5.000000e-001 2.500000e-002 0.0
5.250000e-001 2.500000e-002 0.0
5.500000e-001 2.500000e-002 0.0
5.750000e-001 2.500000e-002 0.0
6.000000e-001 2.500000e-002 0.0
6.250000e-001 2.500000e-002 0.0
6.500000e-001 2.500000e-002 0.0
6.750000e-001 2.500000e-002 0.0
7.000000e-001 2.500000e-002 0.0
7.250000e-001 2.500000e-002 0.0
7.500000e-001 2.500000e-002 0.0
7.750000e-001 2.500000e-002 0.0
8.000000e-001 2.500000e-002 0.0
8.250000e-001 2.500000e-002 0.0
8.500000e-001 2.500000e-002 0.0
8.750000e-001 2.500000e-002 0.0
9.000000e-001 2.500000e-002 0.0
9.250000e-001 2.500000e-002 0.0
9.500000e-001 2.500000e-002 0.0
9.750000e-001 2.500000e-002 0.0
1.000000e+000 2.500000e-002 0.0
0.000000e+000 5.000000e-002 0.0
2.500000e-002 5.000000e-002 0.0
5.000000e-002 5.000000e-002 0.0
7.500000e-002 5.000000e-002 0.0
1.000000e-001 5.000000e-002 0.0
1.250000e-001 5.000000e-002 0.0
1.500000e-001 5.000000e-002 0.0
1.750000e-001 5.000000e-002 0.0
2.000000e-001 5.000000e-002 0.0
2.250000e-001 5.000000e-002 0.0
2.500000e-001 5.000000e-002 0.0
2.750000e-001 5.000000e-002 0.0
3.000000e-001 5.000000e-002 0.0
3.250000e-001 5.000000e-002 0.0
3.500000e-001 5.000000e-002 0.0
3.750000e-001 5.000000e-002 0.0
4.000000e-001 5.000000e-002 0.0
4.250000e-001 5.000000e-002 0.0
4.500000e-001 5.000000e-002 0.0
4.750000e-001 5.000000e-002 0.0
5.000000e-001 5.000000e-002 0.0
5.250000e-001 5.000000e-002 0.0
5.500000e-001 5.000000e-002 0.0
5.750000e-001 5.000000e-002 0.0
6.000000e-001 5.000000e-002 0.0
6.250000e-001 5.000000e-002 0.0
6.500000e-001 5.000000e-002 0.0
6.750000e-001 5.000000e-002 0.0
7.000000e-001 5.000000e-002 0.0
7.250000e-001 5.000000e-002 0.0
7.500000e-001 5.000000e-002 0.0
7.750000e-001 5.000000e-002 0.0
8.000000e-001 5.000000e-002 0.0
8.250000e-001 5.000000e-002 0.0
8.500000e-001 5.000000e-002 0.0
8.750000e-001 5.000000e-002 0.0
9.000000e-001 5.000000e-002 0.0
9.250000e-001 5.000000e-002 0.0
9.500000e-001 5.000000e-002 0.0
9.750000e-001 5.000000e-002 0.0
1.000000e+000 5.000000e-002 0.0
0.000000e+000 7.500000e-002 0.0
2.500000e-002 7.500000e-002 0.0
5.000000e-002 7.500000e-002 0.0
7.500000e-002 7.500000e-002 0.0
1.000000e-001 7.500000e-002 0.0
1.250000e-001 7.500000e-002 0.0
1.500000e-001 7.500000e-002 0.0
1.750000e-001 7.500000e-002 0.0
2.000000e-001 7.500000e-002 0.0
2.250000e-001 7.500000e-002 0.0
2.500000e-001 7.500000e-002 0.0
2.750000e-001 7.500000e-002 0.0
3.000000e-001 7.500000e-002 0.0
3.250000e-001 7.500000e-002 0.0
3.500000e-001 7.500000e-002 0.0
3.750000e-001 7.500000e-002 0.0
4.000000e-001 7.500000e-002 0.0
4.250000e-001 7.500000e-002 0.0
4.500000e-001 7.500000e-002 0.0
4.750000e-001 7.500000e-002 0.0
5.000000e-001 7.500000e-002 0.0
5.250000e-001 7.500000e-002 0.0
5.500000e-001 7.500000e-002 0.0
5.750000e-001 7.500000e-002 0.0
6.000000e-001 7.500000e-002 0.0
6.250000e-001 7.500000e-002 0.0
6.500000e-001 7.500000e-002 0.0
6.750000e-001 7.500000e-002 0.0
7.000000e-001 7.500000e-002 0.0
7.250000e-001 7.500000e-002 0.0
7.500000e-001 7.500000e-002 0.0
7.750000e-001 7.500000e-002 0.0
8.000000e-001 7.500000e-002 0.0
8.250000e-001 7.500000e-002 0.0
8.500000e-001 7.500000e-002 0.0
8.750000e-001 7.500000e-002 0.0
9.000000e-001 7.500000e-002 0.0
9.250000e-001 7.500000e-002 0.0
9.500000e-001 7.500000e-002 0.0
9.750000e-001 7.500000e-002 0.0
1.000000e+000 7.500000e-002 0.0
0.000000e+000 1.000000e-001 0.0
2.500000e-002 1.000000e-001 0.0
5.000000e-002 1.000000e-001 0.0
7.500000e-002 1.000000e-001 0.0
1.000000e-001 1.000000e-001 0.0
1.250000e-001 1.000000e-001 0.0
1.500000e-001 1.000000e-001 0.0
1.750000e-001 1.000000e-001 0.0
2.000000e-001 1.000000e-001 0.0
2.250000e-001 1.000000e-001 0.0
2.500000e-001 1.000000e-001 0.0
2.750000e-001 1.000000e-001 0.0
3.000000e-001 1.000000e-001 0.0
3.250000e-001 1.000000e-001 0.0
3.500000e-001 1.000000e-001 0.0
3.750000e-001 1.000000e-001 0.0
4.000000e-001 1.000000e-001 0.0
4.250000e-001 1.000000e-001 0.0
4.500000e-001 1.000000e-001 0.0
4.750000e-001 1.000000e-001 0.0
5.000000e-001 1.000000e-001 0.0
5.250000e-001 1.000000e-001 0.0
5.500000e-001 1.000000e-001 0.0
5.750000e-001 1.000000e-001 0.0
6.000000e-001 1.000000e-001 0.0
6.250000e-001 1.000000e-001 0.0
6.500000e-001 1.000000e-001 0.0
6.750000e-001 1.000000e-001 0.0
7.000000e-001 1.000000e-001 0.0
7.250000e-001 1.000000e-001 0.0
7.500000e-001 1.000000e-001 0.0
7.750000e-001 1.000000e-001 0.0
8.000000e-001 1.000000e-001 0.0
8.250000e-001 1.000000e-001 0.0
8.500000e-001 1.000000e-001 0.0
8.750000e-001 1.000000e-001 0.0
9.000000e-001 1.000000e-001 0.0
9.250000e-001 1.000000e-001 0.0
9.500000e-001 1.000000e-001 0.0
9.750000e-001 1.000000e-001 0.0
1.000000e+000 1.000000e-001 0.0
0.000000e+000 1.250000e-001 0.0
2.500000e-002 1.250000e-001 0.0
5.000000e-002 1.250000e-001 0.0
7.500000e-002 1.250000e-001 0.0
1.000000e-001 1.250000e-001 0.0
1.250000e-001 1.250000e-001 0.0
1.500000e-001 1.250000e-001 0.0
1.750000e-001 1.250000e-001 0.0
2.000000e-001 1.250000e-001 0.0
2.250000e-001 1.250000e-001 0.0
2.500000e-001 1.250000e-001 0.0
2.750000e-001 1.250000e-001 0.0
3.000000e-001 1.250000e-001 0.0
3.250000e-001 1.250000e-001 0.0
3.500000e-001 1.250000e-001 0.0
3.750000e-001 1.250000e-001 0.0
4.000000e-001 1.250000e-001 0.0
4.250000e-001 1.250000e-001 0.0
4.500000e-001 1.250000e-001 0.0
4.750000e-001 1.250000e-001 0.0
5.000000e-001 1.250000e-001 0.0
5.250000e-001 1.250000e-001 0.0
5.500000e-001 1.250000e-001 0.0
5.750000e-001 1.250000e-001 0.0
6.000000e-001 1.250000e-001 0.0
6.250000e-001 1.250000e-001 0.0
6.500000e-001 1.250000e-001 0.0
6.750000e-001 1.250000e-001 0.0
7.000000e-001 1.250000e-001 0.0
7.250000e-001 1.250000e-001 0.0
7.500000e-001 1.250000e-001 0.0
7.750000e-001 1.250000e-001 0.0
8.000000e-001 1.250000e-001 0.0
8.250000e-001 1.250000e-001 0.0
8.500000e-001 1.250000e-001 0.0
8.750000e-001 1.250000e-001 0.0
9.000000e-001 1.250000e-001 0.0
9.250000e-001 1.250000e-001 0.0
9.500000e-001 1.250000e-001 0.0
9.750000e-001 1.250000e-001 0.0
1.000000e+000 1.250000e-001 0.0
0.000000e+000 1.500000e-001 0.0
2.500000e-002 1.500000e-001 0.0
5.000000e-002 1.500000e-001 0.0
7.500000e-002 1.500000e-001 0.0
1.000000e-001 1.500000e-001 0.0
1.250000e-001 1.500000e-001 0.0
1.500000e-001 1.500000e-001 0.0
1.750000e-001 1.500000e-001 0.0
2.000000e-001 1.500000e-001 0.0
2.250000e-001 1.500000e-001 0.0
2.500000e-001 1.500000e-001 0.0
2.750000e-001 1.500000e-001 0.0
3.000000e-001 1.500000e-001 0.0
3.250000e-001 1.500000e-001 0.0
3.500000e-001 1.500000e-001 0.0
3.750000e-001 1.500000e-001 0.0
4.000000e-001 1.500000e-001 0.0
4.250000e-001 1.500000e-001 0.0
4.500000e-001 1.500000e-001 0.0
4.750000e-001 1.500000e-001 0.0
5.000000e-001 1.500000e-001 0.0
5.250000e-001 1.500000e-001 0.0
5.500000e-001 1.500000e-001 0.0
5.750000e-001 1.500000e-001 0.0
6.000000e-001 1.500000e-001 0.0
6.250000e-001 1.500000e-001 0.0
6.500000e-001 1.500000e-001 0.0
6.750000e-001 1.500000e-001 0.0
7.000000e-001 1.500000e-001 0.0
7.250000e-001 1.500000e-001 0.0
7.500000e-001 1.500000e-001 0.0
7.750000e-001 1.500000e-001 0.0
8.000000e-001 1.500000e-001 0.0
8.250000e-001 1.500000e-001 0.0
8.500000e-001 1.500000e-001 0.0
8.750000e-001 1.500000e-001 0.0
9.000000e-001 1.500000e-001 0.0
9.250000e-001 1.500000e-001 0.0
9.500000e-001 1.500000e-001 0.0
9.750000e-001 1.500000e-001 0.0
1.000000e+000 1.500000e-001 0.0
0.000000e+000 1.750000e-001 0.0
2.500000e-002 1.750000e-001 0.0
5.000000e-002 1.750000e-001 0.0
7.500000e-002 1.750000e-001 0.0
1.000000e-001 1.750000e-001 0.0
1.250000e-001 1.750000e-001 0.0
1.500000e-001 1.750000e-001 0.0
1.750000e-001 1.750000e-001 0.0
2.000000e-001 1.750000e-001 0.0
2.250000e-001 1.750000e-001 0.0
2.500000e-001 1.750000e-001 0.0
2.750000e-001 1.750000e-001 0.0
[...]
CELL_DATA 1600
SCALARS Temperature double 1
LOOKUP_TABLE default
5.000000e-001
5.823644e-002
5.243171e-003
8.837551e-004
1.188258e-004
1.473649e-005
1.983521e-006
2.728065e-007
3.693753e-008
4.871092e-009
6.310432e-010
8.119650e-011
1.044270e-011
1.344839e-012
1.732107e-013
2.226051e-014
2.849421e-015
3.629909e-016
4.602516e-017
5.812969e-018
7.324011e-019
9.197284e-020
1.145525e-020
1.489433e-021
1.847018e-022
1.076064e-023
8.482358e-024
9.945673e-024
1.081629e-023
1.140338e-023
1.160312e-023
1.167091e-023
1.169896e-023
1.171044e-023
1.171729e-023
1.172051e-023
1.172546e-023
1.172882e-023
1.173122e-023
1.173053e-023
9.417636e-001
5.000000e-001
1.680925e-001
3.240280e-002
4.157271e-003
5.089509e-004
6.985894e-005
9.641710e-006
1.299058e-006
1.701614e-007
2.194904e-008
2.819829e-009
3.626508e-010
4.671751e-011
6.016392e-012
7.726414e-013
9.878262e-014
1.256678e-014
1.591336e-015
2.007698e-016
2.527391e-017
3.172327e-018
3.952936e-019
5.109842e-020
6.413210e-021
3.978640e-022
2.452977e-022
2.997838e-022
3.267925e-022
3.421432e-022
3.477180e-022
3.495905e-022
3.503959e-022
3.507860e-022
3.509670e-022
3.510343e-022
3.509933e-022
3.510768e-022
3.511077e-022
3.509807e-022
9.947568e-001
8.319075e-001
5.000000e-001
2.081135e-001
5.768419e-002
6.983918e-003
1.023990e-003
1.412530e-004
1.870793e-005
2.406393e-006
3.074183e-007
3.940379e-008
5.071882e-009
6.539759e-010
8.416866e-011
1.078382e-011
1.373984e-012
1.741452e-013
2.197813e-014
2.765416e-015
3.473951e-016
4.355446e-017
5.432846e-018
6.933756e-019
8.863849e-020
6.852774e-021
2.138558e-021
2.720293e-021
2.970270e-021
3.054858e-021
3.082905e-021
3.092562e-021
3.096728e-021
3.098427e-021
3.100170e-021
3.100828e-021
3.101608e-021
3.101964e-021
3.102539e-021
3.102271e-021
9.991162e-001
9.675972e-001
7.918865e-001
5.000000e-001
2.392179e-001
7.616180e-002
1.382994e-002
1.833902e-003
2.348852e-004
2.947586e-005
3.740066e-006
4.804228e-007
6.203908e-008
8.008014e-009
1.028432e-009
1.311597e-010
1.661812e-011
2.095014e-012
2.632451e-013
3.301660e-014
4.138051e-015
5.181621e-016
6.469844e-017
8.165834e-018
1.044572e-018
1.045051e-019
1.444687e-020
1.623645e-020
1.739990e-020
1.833937e-020
1.866570e-020
1.884378e-020
1.909308e-020
1.701582e-020
1.615995e-020
1.619436e-020
1.630381e-020
1.620380e-020
1.707949e-020
1.627401e-020
9.998812e-001
9.958427e-001
9.423158e-001
7.607821e-001
5.000000e-001
2.582968e-001
9.433119e-002
2.238025e-002
2.761570e-003
3.394417e-004
4.338965e-005
5.629791e-006
7.303566e-007
9.419742e-008
1.203190e-008
1.522934e-009
1.915280e-010
2.399976e-011
3.002799e-012
3.756054e-013
4.699782e-014
5.880012e-015
7.346019e-016
9.211804e-017
1.164889e-017
1.365169e-018
1.268477e-019
5.924538e-020
6.068861e-020
6.480550e-020
6.621783e-020
6.788355e-020
7.052372e-020
5.874649e-020
5.672469e-020
5.517596e-020
5.620389e-020
5.553948e-020
5.902022e-020
5.579065e-020
9.999853e-001
9.994910e-001
9.930161e-001
9.238382e-001
7.417032e-001
5.000000e-001
2.719557e-001
1.109712e-001
3.078440e-002
3.770244e-003
4.983840e-004
6.556961e-005
8.511134e-006
1.091152e-006
1.379437e-007
1.727967e-008
2.155567e-009
2.686892e-010
3.352301e-011
4.188098e-012
5.237744e-013
6.551161e-014
8.184678e-015
1.022788e-015
1.280390e-016
1.575228e-017
1.733372e-018
2.253605e-019
1.902331e-019
2.042396e-019
2.089050e-019
2.150381e-019
2.247923e-019
1.840137e-019
1.840233e-019
1.721309e-019
1.759112e-019
1.735305e-019
1.848564e-019
1.743322e-019
9.999980e-001
9.999301e-001
9.989760e-001
9.861701e-001
9.056688e-001
7.280443e-001
5.000000e-001
2.835745e-001
1.262804e-001
3.765601e-002
5.848751e-003
7.692565e-004
9.876314e-005
1.249486e-005
1.555392e-006
1.926190e-007
2.387404e-008
2.968329e-009
3.702641e-010
4.628874e-011
5.792208e-012
7.244158e-013
9.043840e-014
1.127100e-014
1.401924e-015
1.736590e-016
2.095930e-017
2.172437e-018
6.386111e-019
6.400071e-019
6.441605e-019
6.565411e-019
6.875820e-019
5.482464e-019
5.483389e-019
5.210967e-019
5.350152e-019
5.274737e-019
5.623716e-019
5.299902e-019
9.999997e-001
9.999904e-001
9.998587e-001
9.981661e-001
9.776198e-001
8.890288e-001
7.164255e-001
5.000000e-001
2.941901e-001
1.391056e-001
4.575825e-002
9.030674e-003
1.133112e-003
1.407437e-004
1.719403e-005
2.111552e-006
2.613333e-007
3.255374e-008
4.071860e-009
5.101113e-010
6.388308e-011
7.984394e-012
9.948531e-013
1.235725e-013
1.529511e-014
1.888015e-015
2.327359e-016
2.698250e-017
3.028794e-018
1.768757e-018
1.876437e-018
1.981162e-018
2.076325e-018
1.640893e-018
1.641261e-018
1.567965e-018
1.612416e-018
1.589447e-018
1.694753e-018
1.596757e-018
1.000000e+000
9.999987e-001
9.999813e-001
9.997651e-001
9.972384e-001
9.692156e-001
8.737196e-001
7.058099e-001
5.000000e-001
3.032167e-001
1.500167e-001
5.409467e-002
1.269383e-002
1.548793e-003
1.855946e-004
2.283561e-005
2.844585e-006
3.566272e-007
4.480830e-008
5.624498e-009
7.041693e-010
8.780986e-011
1.090079e-011
1.347856e-012
1.659854e-013
2.039596e-014
2.515499e-015
3.089565e-016
3.393849e-017
5.766912e-018
5.573526e-018
5.954812e-018
6.242730e-018
4.919286e-018
4.919837e-018
4.708582e-018
4.844681e-018
4.775256e-018
5.092505e-018
4.797538e-018
1.000000e+000
9.999998e-001
9.999976e-001
9.999705e-001
9.996606e-001
9.962298e-001
9.623440e-001
8.608944e-001
6.967833e-001
5.000000e-001
3.105173e-001
1.597585e-001
6.244539e-002
1.659176e-002
1.953761e-003
2.461807e-004
3.107748e-005
3.927056e-006
4.950465e-007
6.211705e-008
7.755283e-009
9.625394e-010
1.188173e-010
1.460728e-011
1.788884e-012
2.191126e-013
2.704875e-014
3.388757e-015
4.162364e-016
4.736846e-017
1.758971e-017
1.787791e-017
1.874459e-017
1.475295e-017
1.475366e-017
1.412943e-017
1.454164e-017
1.433433e-017
1.528669e-017
1.439894e-017
1.000000e+000
1.000000e+000
9.999997e-001
9.999963e-001
9.999566e-001
9.995016e-001
9.941513e-001
9.542418e-001
8.499833e-001
6.894827e-001
5.000000e-001
3.167377e-001
1.687087e-001
7.073986e-002
2.014266e-002
2.704614e-003
3.439190e-004
4.361400e-005
5.491220e-006
6.859557e-007
8.513309e-008
1.048848e-008
1.285343e-009
1.570214e-010
1.912791e-011
2.343479e-012
2.916752e-013
3.718630e-014
4.842804e-015
6.145180e-016
8.231365e-017
4.922103e-017
5.624598e-017
4.424688e-017
4.425037e-017
4.239115e-017
4.363439e-017
4.301511e-017
4.586791e-017
4.320751e-017
1.000000e+000
1.000000e+000
1.000000e+000
9.999995e-001
9.999944e-001
9.999344e-001
9.992307e-001
9.909693e-001
9.459053e-001
8.402415e-001
6.832623e-001
5.000000e-001
3.222561e-001
1.771619e-001
7.844844e-002
2.373677e-002
3.849205e-003
4.872254e-004
6.090624e-005
7.541580e-006
9.278609e-007
1.132129e-007
1.376618e-008
1.672060e-009
2.029876e-010
2.506026e-011
3.181466e-012
4.172273e-013
5.659395e-014
7.788931e-015
1.032606e-015
1.736839e-016
1.687610e-016
1.327226e-016
1.327378e-016
1.271751e-016
1.309224e-016
1.290537e-016
1.376014e-016
1.296296e-016
1.000000e+000
1.000000e+000
1.000000e+000
9.999999e-001
9.999993e-001
9.999915e-001
9.999012e-001
9.988669e-001
9.873062e-001
9.375546e-001
8.312913e-001
6.777439e-001
5.000000e-001
3.273710e-001
1.850252e-001
8.553453e-002
2.791654e-002
5.441304e-003
6.709000e-004
8.208605e-005
9.997502e-006
1.206209e-006
1.457414e-007
1.763936e-008
2.144272e-009
2.705738e-010
3.558127e-011
4.855674e-012
6.853018e-013
9.854040e-014
1.418338e-014
2.030331e-015
4.284086e-016
3.634035e-016
3.982003e-016
3.815636e-016
3.928001e-016
3.871283e-016
4.127623e-016
3.888670e-016
1.000000e+000
1.000000e+000
1.000000e+000
1.000000e+000
9.999999e-001
9.999989e-001
9.999875e-001
9.998593e-001
9.984512e-001
9.834082e-001
9.292601e-001
8.228381e-001
6.726290e-001
5.000000e-001
3.321375e-001
1.922490e-001
9.208268e-002
3.232760e-002
7.277373e-003
8.799013e-004
1.061231e-004
1.264912e-005
1.526203e-006
1.848292e-007
2.272615e-008
3.001900e-009
4.149863e-010
5.921534e-011
8.666183e-012
1.281736e-012
1.907447e-013
2.821394e-014
3.898418e-015
1.194428e-015
1.194524e-015
1.144622e-015
1.178501e-015
1.161467e-015
1.238347e-015
1.166694e-015
1.000000e+000
1.000000e+000
1.000000e+000
1.000000e+000
1.000000e+000
9.999999e-001
9.999984e-001
9.999828e-001
9.998144e-001
9.980462e-001
9.798573e-001
9.215516e-001
8.149748e-001
6.678625e-001
5.000000e-001
3.365365e-001
1.987865e-001
9.831765e-002
3.688988e-002
9.264683e-003
1.107765e-003
1.303600e-004
1.588644e-005
1.935931e-006
2.456128e-007
3.509194e-008
5.115391e-009
7.581988e-010
1.139605e-010
1.712671e-011
2.578184e-012
3.854169e-013
5.613003e-014
7.458130e-015
3.399849e-015
3.433700e-015
3.535740e-015
3.484735e-015
3.714830e-015
3.500036e-015
1.000000e+000
1.000000e+000
1.000000e+000
1.000000e+000
1.000000e+000
1.000000e+000
9.999998e-001
9.999979e-001
9.999772e-001
9.997538e-001
9.972954e-001
9.762632e-001
9.144655e-001
8.077510e-001
6.634635e-001
5.000000e-001
3.405004e-001
2.047911e-001
1.043284e-001
4.154232e-002
1.136577e-002
1.320938e-003
1.664190e-004
2.050120e-005
2.783583e-006
4.429901e-007
6.664957e-008
1.010754e-008
1.541480e-009
2.328392e-010
3.514734e-011
5.228522e-012
7.632367e-013
1.043574e-013
1.521026e-014
9.645965e-015
1.060791e-014
1.045548e-014
1.114503e-014
1.049940e-014
1.000000e+000
1.000000e+000
1.000000e+000
1.000000e+000
1.000000e+000
1.000000e+000
1.000000e+000
9.999997e-001
9.999972e-001
9.999689e-001
9.996561e-001
9.961508e-001
9.720835e-001
9.079173e-001
8.012135e-001
6.594996e-001
5.000000e-001
3.440905e-001
2.103761e-001
1.101508e-001
4.628074e-002
1.322444e-002
1.797137e-003
2.230859e-004
3.435904e-005
6.087887e-006
9.013274e-007
1.382466e-007
2.118557e-008
3.189696e-009
4.804005e-010
7.053998e-011
1.013132e-011
1.429404e-012
1.890536e-013
3.217027e-014
3.257605e-014
3.136507e-014
3.343713e-014
3.150058e-014
1.000000e+000
1.000000e+000
1.000000e+000
1.000000e+000
1.000000e+000
1.000000e+000
1.000000e+000
1.000000e+000
9.999996e-001
9.999961e-001
9.999564e-001
9.995128e-001
9.945587e-001
9.676724e-001
9.016824e-001
7.952089e-001
6.559095e-001
5.000000e-001
3.473797e-001
2.156176e-001
1.158666e-001
5.071281e-002
1.532604e-002
2.538356e-003
4.772069e-004
8.932822e-005
1.224560e-005
1.916119e-006
2.929172e-007
4.369661e-008
6.547246e-009
9.417633e-010
1.327546e-010
1.860090e-011
2.570025e-012
3.021472e-013
9.203459e-014
9.410406e-014
1.003099e-013
9.449760e-014
1.000000e+000
1.000000e+000
1.000000e+000
1.000000e+000
1.000000e+000
1.000000e+000
1.000000e+000
1.000000e+000
1.000000e+000
9.999995e-001
9.999945e-001
9.999391e-001
9.993291e-001
9.927226e-001
9.631101e-001
8.956716e-001
7.896239e-001
6.526203e-001
5.000000e-001
3.504193e-001
2.206194e-001
1.213787e-001
5.424382e-002
2.281338e-002
7.488853e-003
1.342330e-003
1.605619e-004
2.688523e-005
4.044807e-006
5.953163e-007
8.860308e-008
1.236195e-008
1.712733e-009
2.377256e-010
3.257758e-011
4.148245e-012
5.065517e-013
2.541216e-013
3.009266e-013
2.834602e-013
1.000000e+000
1.000000e+000
1.000000e+000
1.000000e+000
1.000000e+000
1.000000e+000
1.000000e+000
1.000000e+000
1.000000e+000
9.999999e-001
9.999993e-001
9.999925e-001
9.999179e-001
9.991201e-001
9.907353e-001
9.584576e-001
8.898492e-001
7.843822e-001
6.495809e-001
5.000014e-001
3.532849e-001
2.252875e-001
1.290249e-001
1.698559e-002
1.164722e-002
5.801549e-003
1.940903e-003
3.886228e-004
5.527056e-005
8.033538e-006
1.186319e-006
1.582945e-007
2.173984e-008
3.002380e-009
4.020226e-010
5.240733e-011
6.266958e-012
9.041081e-013
9.028102e-013
8.503801e-013
1.000000e+000
1.000000e+000
1.000000e+000
1.000000e+000
1.000000e+000
1.000000e+000
1.000000e+000
1.000000e+000
1.000000e+000
1.000000e+000
9.999999e-001
9.999991e-001
9.999900e-001
9.998939e-001
9.988923e-001
9.886345e-001
9.537194e-001
8.841354e-001
7.793742e-001
6.467042e-001
5.000962e-001
3.548360e-001
2.424322e-001
1.286789e-002
1.362940e-002
9.965193e-003
5.767752e-003
2.467753e-003
7.300908e-004
1.072640e-004
1.565208e-005
1.956398e-006
2.728611e-007
3.752987e-008
4.868170e-009
6.236634e-010
7.851491e-011
8.336904e-012
2.234044e-012
2.011882e-012
1.000000e+000
1.000000e+000
1.000000e+000
1.000000e+000
1.000000e+000
1.000000e+000
1.000000e+000
1.000000e+000
1.000000e+000
1.000000e+000
1.000000e+000
9.999999e-001
9.999988e-001
9.999873e-001
9.998696e-001
9.986787e-001
9.867748e-001
9.492741e-001
8.787048e-001
7.745903e-001
6.442398e-001
4.978739e-001
3.736465e-001
1.562450e-001
4.782658e-002
1.763260e-002
8.665422e-003
4.629859e-003
2.285980e-003
8.538968e-004
2.021403e-004
2.297503e-005
3.440022e-006
4.638540e-007
5.724870e-008
7.187423e-009
9.068974e-010
1.053733e-010
1.317458e-011
5.711009e-012
1.000000e+000
1.000000e+000
1.000000e+000
1.000000e+000
1.000000e+000
1.000000e+000
1.000000e+000
1.000000e+000
1.000000e+000
1.000000e+000
1.000000e+000
1.000000e+000
9.999999e-001
9.999985e-001
9.999841e-001
9.998339e-001
9.982050e-001
9.847318e-001
9.450018e-001
8.734930e-001
7.704477e-001
6.392435e-001
5.102899e-001
3.351464e-001
1.674409e-001
6.431207e-002
2.190174e-002
8.304344e-003
3.679555e-003
1.768886e-003
7.745637e-004
2.503879e-004
4.497051e-005
5.594779e-006
6.411730e-007
8.075983e-008
1.017358e-008
1.217401e-009
1.404937e-010
1.918937e-011
1.000000e+000
1.000000e+000
1.000000e+000
1.000000e+000
1.000000e+000
1.000000e+000
1.000000e+000
1.000000e+000
1.000000e+000
1.000000e+000
1.000000e+000
1.000000e+000
1.000000e+000
9.999998e-001
9.999981e-001
9.999793e-001
9.997760e-001
9.975584e-001
9.823612e-001
9.408434e-001
8.690095e-001
7.643597e-001
6.434418e-001
4.986604e-001
3.290931e-001
1.776057e-001
7.619786e-002
2.658872e-002
8.482805e-003
3.189620e-003
1.357715e-003
6.062313e-004
2.297830e-004
6.259447e-005
6.644368e-006
9.013604e-007
1.126720e-007
1.306904e-008
1.587329e-009
9.925167e-011
1.000000e+000
1.000000e+000
1.000000e+000
1.000000e+000
1.000000e+000
1.000000e+000
1.000000e+000
1.000000e+000
1.000000e+000
1.000000e+000
1.000000e+000
1.000000e+000
1.000000e+000
1.000000e+000
9.999998e-001
9.999974e-001
9.999721e-001
9.996959e-001
9.966856e-001
9.797588e-001
9.371221e-001
8.633564e-001
7.627486e-001
6.408517e-001
4.912839e-001
3.288044e-001
1.856087e-001
8.602102e-002
3.127663e-002
9.570101e-003
2.828334e-003
1.069821e-003
4.483850e-004
1.868172e-004
5.987282e-005
1.053867e-005
1.225180e-006
1.330644e-007
1.643198e-008
7.675822e-010
1.000000e+000
1.000000e+000
1.000000e+000
1.000000e+000
1.000000e+000
1.000000e+000
1.000000e+000
1.000000e+000
1.000000e+000
1.000000e+000
1.000000e+000
1.000000e+000
1.000000e+000
1.000000e+000
1.000000e+000
9.999997e-001
9.999965e-001
9.999624e-001
9.995935e-001
9.956499e-001
9.772417e-001
9.327473e-001
8.592611e-001
7.608688e-001
6.361921e-001
4.867359e-001
3.299196e-001
1.927478e-001
9.416447e-002
3.642964e-002
1.114848e-002
2.647401e-003
8.765952e-004
3.346072e-004
1.360691e-004
4.873997e-005
1.232683e-005
1.248011e-006
1.557623e-007
6.798575e-009
1.000000e+000
1.000000e+000
1.000000e+000
1.000000e+000
1.000000e+000
1.000000e+000
1.000000e+000
1.000000e+000
1.000000e+000
1.000000e+000
1.000000e+000
1.000000e+000
1.000000e+000
1.000000e+000
1.000000e+000
1.000000e+000
9.999996e-001
9.999954e-001
9.999506e-001
9.994781e-001
9.945802e-001
9.743983e-001
9.285697e-001
8.562222e-001
7.575954e-001
6.315379e-001
4.836459e-001
3.317674e-001
1.990479e-001
1.012138e-001
4.152942e-002
1.278897e-002
2.775261e-003
7.455093e-004
2.599725e-004
9.730438e-005
3.608744e-005
1.036496e-005
1.390414e-006
6.256780e-008
1.000000e+000
1.000000e+000
1.000000e+000
1.000000e+000
1.000000e+000
1.000000e+000
1.000000e+000
1.000000e+000
1.000000e+000
1.000000e+000
1.000000e+000
1.000000e+000
1.000000e+000
1.000000e+000
1.000000e+000
1.000000e+000
9.999999e-001
9.999994e-001
9.999940e-001
9.999375e-001
9.993540e-001
9.934055e-001
9.713175e-001
9.250697e-001
8.530239e-001
7.536931e-001
6.272485e-001
4.815216e-001
3.339118e-001
2.046041e-001
1.076336e-001
4.632267e-002
1.461674e-002
3.087165e-003
6.927473e-004
2.035470e-004
7.048763e-005
2.491130e-005
7.385316e-006
6.519669e-007
1.000000e+000
1.000000e+000
1.000000e+000
1.000000e+000
1.000000e+000
1.000000e+000
1.000000e+000
1.000000e+000
1.000000e+000
1.000000e+000
1.000000e+000
1.000000e+000
1.000000e+000
1.000000e+000
1.000000e+000
1.000000e+000
1.000000e+000
9.999999e-001
9.999993e-001
9.999925e-001
9.999230e-001
9.992168e-001
9.920900e-001
9.683619e-001
9.217678e-001
8.494991e-001
7.495572e-001
6.233848e-001
4.800501e-001
3.360920e-001
2.096854e-001
1.135150e-001
5.089301e-002
1.675041e-002
3.683478e-003
6.736348e-004
1.697132e-004
5.167782e-005
1.678035e-005
2.639409e-006
1.000000e+000
1.000000e+000
1.000000e+000
1.000000e+000
1.000000e+000
1.000000e+000
1.000000e+000
1.000000e+000
1.000000e+000
1.000000e+000
1.000000e+000
1.000000e+000
1.000000e+000
1.000000e+000
1.000000e+000
1.000000e+000
1.000000e+000
1.000000e+000
9.999999e-001
9.999991e-001
9.999908e-001
9.999069e-001
9.990559e-001
9.908973e-001
9.657183e-001
9.185334e-001
8.457518e-001
7.453920e-001
6.199262e-001
4.789870e-001
3.382652e-001
2.143896e-001
1.189797e-001
5.519243e-002
1.914553e-002
4.471952e-003
7.136315e-004
1.425024e-004
4.263435e-005
6.118363e-006
1.000000e+000
1.000000e+000
1.000000e+000
1.000000e+000
1.000000e+000
1.000000e+000
1.000000e+000
1.000000e+000
1.000000e+000
1.000000e+000
1.000000e+000
1.000000e+000
1.000000e+000
1.000000e+000
1.000000e+000
1.000000e+000
1.000000e+000
1.000000e+000
1.000000e+000
9.999999e-001
9.999989e-001
9.999887e-001
9.998821e-001
9.987361e-001
9.895806e-001
9.632498e-001
9.153177e-001
8.418986e-001
7.413192e-001
6.168084e-001
4.782036e-001
3.404041e-001
2.187952e-001
1.240287e-001
5.929385e-002
2.166535e-002
5.446281e-003
7.345976e-004
1.614814e-004
1.254690e-005
1.000000e+000
1.000000e+000
1.000000e+000
1.000000e+000
1.000000e+000
1.000000e+000
1.000000e+000
1.000000e+000
1.000000e+000
1.000000e+000
1.000000e+000
1.000000e+000
1.000000e+000
1.000000e+000
1.000000e+000
1.000000e+000
1.000000e+000
1.000000e+000
1.000000e+000
1.000000e+000
9.999999e-001
9.999986e-001
9.999853e-001
9.998425e-001
9.982910e-001
9.881455e-001
9.608636e-001
9.121068e-001
8.380330e-001
7.373988e-001
6.139785e-001
4.776214e-001
3.425027e-001
2.229122e-001
1.287234e-001
6.325079e-002
2.433295e-002
6.380355e-003
9.711795e-004
5.652779e-005
1.000000e+000
1.000000e+000
1.000000e+000
1.000000e+000
1.000000e+000
1.000000e+000
1.000000e+000
1.000000e+000
1.000000e+000
1.000000e+000
1.000000e+000
1.000000e+000
1.000000e+000
1.000000e+000
1.000000e+000
1.000000e+000
1.000000e+000
1.000000e+000
1.000000e+000
1.000000e+000
1.000000e+000
9.999998e-001
9.999982e-001
9.999805e-001
9.997897e-001
9.977440e-001
9.866552e-001
9.584770e-001
9.088806e-001
8.342042e-001
7.336511e-001
6.113941e-001
4.771955e-001
3.445423e-001
2.267627e-001
1.331310e-001
6.714418e-002
2.694000e-002
7.657418e-003
6.325896e-004
1.000000e+000
1.000000e+000
1.000000e+000
1.000000e+000
1.000000e+000
1.000000e+000
1.000000e+000
1.000000e+000