# vtk DataFile Version 3.0
13.TVD_MUSCL
ASCII
DATASET STRUCTURED_GRID
DIMENSIONS 81 81 1
POINTS 6561 double
0.000000e+00 0.000000e+00 0.0
1.250000e-02 0.000000e+00 0.0
2.500000e-02 0.000000e+00 0.0
3.750000e-02 0.000000e+00 0.0
5.000000e-02 0.000000e+00 0.0
6.250000e-02 0.000000e+00 0.0
7.500000e-02 0.000000e+00 0.0
8.750000e-02 0.000000e+00 0.0
1.000000e-01 0.000000e+00 0.0
1.125000e-01 0.000000e+00 0.0
1.250000e-01 0.000000e+00 0.0
1.375000e-01 0.000000e+00 0.0
1.500000e-01 0.000000e+00 0.0
1.625000e-01 0.000000e+00 0.0
1.750000e-01 0.000000e+00 0.0
1.875000e-01 0.000000e+00 0.0
2.000000e-01 0.000000e+00 0.0
2.125000e-01 0.000000e+00 0.0
2.250000e-01 0.000000e+00 0.0
2.375000e-01 0.000000e+00 0.0
2.500000e-01 0.000000e+00 0.0
2.625000e-01 0.000000e+00 0.0
2.750000e-01 0.000000e+00 0.0
2.875000e-01 0.000000e+00 0.0
3.000000e-01 0.000000e+00 0.0
3.125000e-01 0.000000e+00 0.0
3.250000e-01 0.000000e+00 0.0
3.375000e-01 0.000000e+00 0.0
3.500000e-01 0.000000e+00 0.0
3.625000e-01 0.000000e+00 0.0
3.750000e-01 0.000000e+00 0.0
3.875000e-01 0.000000e+00 0.0
4.000000e-01 0.000000e+00 0.0
4.125000e-01 0.000000e+00 0.0
4.250000e-01 0.000000e+00 0.0
4.375000e-01 0.000000e+00 0.0
4.500000e-01 0.000000e+00 0.0
4.625000e-01 0.000000e+00 0.0
4.750000e-01 0.000000e+00 0.0
4.875000e-01 0.000000e+00 0.0
5.000000e-01 0.000000e+00 0.0
5.125000e-01 0.000000e+00 0.0
5.250000e-01 0.000000e+00 0.0
5.375000e-01 0.000000e+00 0.0
5.500000e-01 0.000000e+00 0.0
5.625000e-01 0.000000e+00 0.0
5.750000e-01 0.000000e+00 0.0
5.875000e-01 0.000000e+00 0.0
6.000000e-01 0.000000e+00 0.0
6.125000e-01 0.000000e+00 0.0
6.250000e-01 0.000000e+00 0.0
6.375000e-01 0.000000e+00 0.0
6.500000e-01 0.000000e+00 0.0
6.625000e-01 0.000000e+00 0.0
6.750000e-01 0.000000e+00 0.0
6.875000e-01 0.000000e+00 0.0
7.000000e-01 0.000000e+00 0.0
7.125000e-01 0.000000e+00 0.0
7.250000e-01 0.000000e+00 0.0
7.375000e-01 0.000000e+00 0.0
7.500000e-01 0.000000e+00 0.0
7.625000e-01 0.000000e+00 0.0
7.750000e-01 0.000000e+00 0.0
7.875000e-01 0.000000e+00 0.0
8.000000e-01 0.000000e+00 0.0
8.125000e-01 0.000000e+00 0.0
8.250000e-01 0.000000e+00 0.0
8.375000e-01 0.000000e+00 0.0
8.500000e-01 0.000000e+00 0.0
8.625000e-01 0.000000e+00 0.0
8.750000e-01 0.000000e+00 0.0
8.875000e-01 0.000000e+00 0.0
9.000000e-01 0.000000e+00 0.0
9.125000e-01 0.000000e+00 0.0
9.250000e-01 0.000000e+00 0.0
9.375000e-01 0.000000e+00 0.0
9.500000e-01 0.000000e+00 0.0
9.625000e-01 0.000000e+00 0.0
9.750000e-01 0.000000e+00 0.0
9.875000e-01 0.000000e+00 0.0
1.000000e+00 0.000000e+00 0.0
0.000000e+00 1.250000e-02 0.0
1.250000e-02 1.250000e-02 0.0
2.500000e-02 1.250000e-02 0.0
3.750000e-02 1.250000e-02 0.0
5.000000e-02 1.250000e-02 0.0
6.250000e-02 1.250000e-02 0.0
7.500000e-02 1.250000e-02 0.0
8.750000e-02 1.250000e-02 0.0
1.000000e-01 1.250000e-02 0.0
1.125000e-01 1.250000e-02 0.0
1.250000e-01 1.250000e-02 0.0
1.375000e-01 1.250000e-02 0.0
1.500000e-01 1.250000e-02 0.0
1.625000e-01 1.250000e-02 0.0
1.750000e-01 1.250000e-02 0.0
1.875000e-01 1.250000e-02 0.0
2.000000e-01 1.250000e-02 0.0
2.125000e-01 1.250000e-02 0.0
2.250000e-01 1.250000e-02 0.0
2.375000e-01 1.250000e-02 0.0
2.500000e-01 1.250000e-02 0.0
2.625000e-01 1.250000e-02 0.0
2.750000e-01 1.250000e-02 0.0
2.875000e-01 1.250000e-02 0.0
3.000000e-01 1.250000e-02 0.0
3.125000e-01 1.250000e-02 0.0
3.250000e-01 1.250000e-02 0.0
3.375000e-01 1.250000e-02 0.0
3.500000e-01 1.250000e-02 0.0
3.625000e-01 1.250000e-02 0.0
3.750000e-01 1.250000e-02 0.0
3.875000e-01 1.250000e-02 0.0
4.000000e-01 1.250000e-02 0.0
4.125000e-01 1.250000e-02 0.0
4.250000e-01 1.250000e-02 0.0
4.375000e-01 1.250000e-02 0.0
4.500000e-01 1.250000e-02 0.0
4.625000e-01 1.250000e-02 0.0
4.750000e-01 1.250000e-02 0.0
4.875000e-01 1.250000e-02 0.0
5.000000e-01 1.250000e-02 0.0
5.125000e-01 1.250000e-02 0.0
5.250000e-01 1.250000e-02 0.0
5.375000e-01 1.250000e-02 0.0
5.500000e-01 1.250000e-02 0.0
5.625000e-01 1.250000e-02 0.0
5.750000e-01 1.250000e-02 0.0
5.875000e-01 1.250000e-02 0.0
6.000000e-01 1.250000e-02 0.0
6.125000e-01 1.250000e-02 0.0
6.250000e-01 1.250000e-02 0.0
6.375000e-01 1.250000e-02 0.0
6.500000e-01 1.250000e-02 0.0
6.625000e-01 1.250000e-02 0.0
6.750000e-01 1.250000e-02 0.0
6.875000e-01 1.250000e-02 0.0
7.000000e-01 1.250000e-02 0.0
7.125000e-01 1.250000e-02 0.0
7.250000e-01 1.250000e-02 0.0
7.375000e-01 1.250000e-02 0.0
7.500000e-01 1.250000e-02 0.0
7.625000e-01 1.250000e-02 0.0
7.750000e-01 1.250000e-02 0.0
7.875000e-01 1.250000e-02 0.0
8.000000e-01 1.250000e-02 0.0
8.125000e-01 1.250000e-02 0.0
8.250000e-01 1.250000e-02 0.0
8.375000e-01 1.250000e-02 0.0
8.500000e-01 1.250000e-02 0.0
8.625000e-01 1.250000e-02 0.0
8.750000e-01 1.250000e-02 0.0
8.875000e-01 1.250000e-02 0.0
9.000000e-01 1.250000e-02 0.0
9.125000e-01 1.250000e-02 0.0
9.250000e-01 1.250000e-02 0.0
9.375000e-01 1.250000e-02 0.0
9.500000e-01 1.250000e-02 0.0
9.625000e-01 1.250000e-02 0.0
9.750000e-01 1.250000e-02 0.0
9.875000e-01 1.250000e-02 0.0
1.000000e+00 1.250000e-02 0.0
0.000000e+00 2.500000e-02 0.0
1.250000e-02 2.500000e-02 0.0
2.500000e-02 2.500000e-02 0.0
3.750000e-02 2.500000e-02 0.0
5.000000e-02 2.500000e-02 0.0
6.250000e-02 2.500000e-02 0.0
7.500000e-02 2.500000e-02 0.0
8.750000e-02 2.500000e-02 0.0
1.000000e-01 2.500000e-02 0.0
1.125000e-01 2.500000e-02 0.0
1.250000e-01 2.500000e-02 0.0
1.375000e-01 2.500000e-02 0.0
1.500000e-01 2.500000e-02 0.0
1.625000e-01 2.500000e-02 0.0
1.750000e-01 2.500000e-02 0.0
1.875000e-01 2.500000e-02 0.0
2.000000e-01 2.500000e-02 0.0
2.125000e-01 2.500000e-02 0.0
2.250000e-01 2.500000e-02 0.0
2.375000e-01 2.500000e-02 0.0
2.500000e-01 2.500000e-02 0.0
2.625000e-01 2.500000e-02 0.0
2.750000e-01 2.500000e-02 0.0
2.875000e-01 2.500000e-02 0.0
3.000000e-01 2.500000e-02 0.0
3.125000e-01 2.500000e-02 0.0
3.250000e-01 2.500000e-02 0.0
3.375000e-01 2.500000e-02 0.0
3.500000e-01 2.500000e-02 0.0
3.625000e-01 2.500000e-02 0.0
3.750000e-01 2.500000e-02 0.0
3.875000e-01 2.500000e-02 0.0
4.000000e-01 2.500000e-02 0.0
4.125000e-01 2.500000e-02 0.0
4.250000e-01 2.500000e-02 0.0
4.375000e-01 2.500000e-02 0.0
4.500000e-01 2.500000e-02 0.0
4.625000e-01 2.500000e-02 0.0
4.750000e-01 2.500000e-02 0.0
4.875000e-01 2.500000e-02 0.0
5.000000e-01 2.500000e-02 0.0
5.125000e-01 2.500000e-02 0.0
5.250000e-01 2.500000e-02 0.0
5.375000e-01 2.500000e-02 0.0
5.500000e-01 2.500000e-02 0.0
5.625000e-01 2.500000e-02 0.0
5.750000e-01 2.500000e-02 0.0
5.875000e-01 2.500000e-02 0.0
6.000000e-01 2.500000e-02 0.0
6.125000e-01 2.500000e-02 0.0
6.250000e-01 2.500000e-02 0.0
6.375000e-01 2.500000e-02 0.0
6.500000e-01 2.500000e-02 0.0
6.625000e-01 2.500000e-02 0.0
6.750000e-01 2.500000e-02 0.0
6.875000e-01 2.500000e-02 0.0
7.000000e-01 2.500000e-02 0.0
7.125000e-01 2.500000e-02 0.0
7.250000e-01 2.500000e-02 0.0
7.375000e-01 2.500000e-02 0.0
7.500000e-01 2.500000e-02 0.0
7.625000e-01 2.500000e-02 0.0
7.750000e-01 2.500000e-02 0.0
7.875000e-01 2.500000e-02 0.0
8.000000e-01 2.500000e-02 0.0
8.125000e-01 2.500000e-02 0.0
8.250000e-01 2.500000e-02 0.0
8.375000e-01 2.500000e-02 0.0
8.500000e-01 2.500000e-02 0.0
8.625000e-01 2.500000e-02 0.0
8.750000e-01 2.500000e-02 0.0
8.875000e-01 2.500000e-02 0.0
9.000000e-01 2.500000e-02 0.0
9.125000e-01 2.500000e-02 0.0
9.250000e-01 2.500000e-02 0.0
9.375000e-01 2.500000e-02 0.0
9.500000e-01 2.500000e-02 0.0
9.625000e-01 2.500000e-02 0.0
9.750000e-01 2.500000e-02 0.0
9.875000e-01 2.500000e-02 0.0
1.000000e+00 2.500000e-02 0.0
0.000000e+00 3.750000e-02 0.0
1.250000e-02 3.750000e-02 0.0
2.500000e-02 3.750000e-02 0.0
3.750000e-02 3.750000e-02 0.0
5.000000e-02 3.750000e-02 0.0
6.250000e-02 3.750000e-02 0.0
7.500000e-02 3.750000e-02 0.0
8.750000e-02 3.750000e-02 0.0
1.000000e-01 3.750000e-02 0.0
1.125000e-01 3.750000e-02 0.0
1.250000e-01 3.750000e-02 0.0
1.375000e-01 3.750000e-02 0.0
1.500000e-01 3.750000e-02 0.0
1.625000e-01 3.750000e-02 0.0
1.750000e-01 3.750000e-02 0.0
1.875000e-01 3.750000e-02 0.0
2.000000e-01 3.750000e-02 0.0
2.125000e-01 3.750000e-02 0.0
2.250000e-01 3.750000e-02 0.0
2.375000e-01 3.750000e-02 0.0
2.500000e-01 3.750000e-02 0.0
2.625000e-01 3.750000e-02 0.0
2.750000e-01 3.750000e-02 0.0
2.875000e-01 3.750000e-02 0.0
3.000000e-01 3.750000e-02 0.0
3.125000e-01 3.750000e-02 0.0
3.250000e-01 3.750000e-02 0.0
3.375000e-01 3.750000e-02 0.0
3.500000e-01 3.750000e-02 0.0
3.625000e-01 3.750000e-02 0.0
3.750000e-01 3.750000e-02 0.0
3.875000e-01 3.750000e-02 0.0
4.000000e-01 3.750000e-02 0.0
4.125000e-01 3.750000e-02 0.0
4.250000e-01 3.750000e-02 0.0
4.375000e-01 3.750000e-02 0.0
4.500000e-01 3.750000e-02 0.0
4.625000e-01 3.750000e-02 0.0
4.750000e-01 3.750000e-02 0.0
4.875000e-01 3.750000e-02 0.0
5.000000e-01 3.750000e-02 0.0
5.125000e-01 3.750000e-02 0.0
5.250000e-01 3.750000e-02 0.0
5.375000e-01 3.750000e-02 0.0
5.500000e-01 3.750000e-02 0.0
5.625000e-01 3.750000e-02 0.0
5.750000e-01 3.750000e-02 0.0
5.875000e-01 3.750000e-02 0.0
6.000000e-01 3.750000e-02 0.0
6.125000e-01 3.750000e-02 0.0
6.250000e-01 3.750000e-02 0.0
6.375000e-01 3.750000e-02 0.0
6.500000e-01 3.750000e-02 0.0
6.625000e-01 3.750000e-02 0.0
6.750000e-01 3.750000e-02 0.0
6.875000e-01 3.750000e-02 0.0
7.000000e-01 3.750000e-02 0.0
7.125000e-01 3.750000e-02 0.0
7.250000e-01 3.750000e-02 0.0
7.375000e-01 3.750000e-02 0.0
7.500000e-01 3.750000e-02 0.0
7.625000e-01 3.750000e-02 0.0
7.750000e-01 3.750000e-02 0.0
7.875000e-01 3.750000e-02 0.0
8.000000e-01 3.750000e-02 0.0
8.125000e-01 3.750000e-02 0.0
8.250000e-01 3.750000e-02 0.0
8.375000e-01 3.750000e-02 0.0
8.500000e-01 3.750000e-02 0.0
8.625000e-01 3.750000e-02 0.0
8.750000e-01 3.750000e-02 0.0
8.875000e-01 3.750000e-02 0.0
9.000000e-01 3.750000e-02 0.0
9.125000e-01 3.750000e-02 0.0
9.250000e-01 3.750000e-02 0.0
9.375000e-01 3.750000e-02 0.0
9.500000e-01 3.750000e-02 0.0
9.625000e-01 3.750000e-02 0.0
9.750000e-01 3.750000e-02 0.0
9.875000e-01 3.750000e-02 0.0
1.000000e+00 3.750000e-02 0.0
0.000000e+00 5.000000e-02 0.0
1.250000e-02 5.000000e-02 0.0
2.500000e-02 5.000000e-02 0.0
3.750000e-02 5.000000e-02 0.0
5.000000e-02 5.000000e-02 0.0
[...]
CELL_DATA 6400
SCALARS Temperature double 1
LOOKUP_TABLE default
5.000000e-01
6.904713e-02
1.037199e-02
2.462782e-03
5.114640e-04
1.199633e-04
2.785596e-05
6.473559e-06
1.525673e-06
3.588688e-07
8.426180e-08
1.981243e-08
4.662900e-09
1.097384e-09
2.580667e-10
6.065045e-11
1.424741e-11
3.345198e-12
7.849546e-13
1.840584e-13
4.312114e-14
1.009666e-14
2.364579e-15
5.539624e-16
1.286684e-16
2.977978e-17
7.408093e-18
1.696913e-18
2.282835e-19
1.441173e-19
1.598878e-19
1.651431e-19
1.724584e-19
1.749196e-19
1.757439e-19
1.760505e-19
1.761801e-19
1.762405e-19
1.763070e-19
1.763859e-19
1.764870e-19
1.766614e-19
1.769689e-19
1.774807e-19
1.782798e-19
1.794673e-19
1.811938e-19
1.831801e-19
1.848869e-19
1.859049e-19
1.865738e-19
1.868425e-19
1.869394e-19
1.870265e-19
1.870722e-19
1.871176e-19
1.632307e-19
1.537972e-19
1.639771e-19
1.673787e-19
1.770163e-19
1.759743e-19
1.140214e-19
4.921182e-20
1.385135e-20
1.264455e-21
-3.772178e-21
-6.813953e-21
-8.827115e-21
-9.651903e-21
-9.931302e-21
-1.005916e-20
-1.019687e-20
-1.040674e-20
-1.067059e-20
-1.079242e-20
-1.083387e-20
-1.085004e-20
-1.085598e-20
-8.111961e-21
9.309529e-01
5.000000e-01
1.854707e-01
4.948745e-02
1.007640e-02
2.427382e-03
5.624901e-04
1.309088e-04
3.093827e-05
7.273149e-06
1.707299e-06
4.015897e-07
9.453349e-08
2.224614e-08
5.230395e-09
1.229028e-09
2.886703e-10
6.776695e-11
1.589842e-11
3.727107e-12
8.730142e-13
2.043779e-13
4.785408e-14
1.120735e-14
2.604382e-15
6.032137e-16
1.487965e-16
3.451887e-17
5.012851e-18
2.479238e-18
2.754805e-18
2.846646e-18
2.914384e-18
2.936688e-18
2.944693e-18
2.948228e-18
2.949592e-18
2.949695e-18
2.950223e-18
2.950366e-18
2.950379e-18
2.950860e-18
2.951177e-18
2.952041e-18
2.954592e-18
2.961159e-18
2.980285e-18
3.011034e-18
3.043787e-18
3.066519e-18
3.083755e-18
3.107128e-18
3.118598e-18
3.124580e-18
3.126704e-18
3.127489e-18
2.937288e-18
2.941092e-18
2.951177e-18
2.980897e-18
2.991262e-18
2.994835e-18
2.090829e-18
9.608016e-19
2.898346e-19
3.800170e-20
-4.091631e-20
-8.801107e-20
-1.368013e-19
-1.532757e-19
-1.587755e-19
-1.615432e-19
-1.637067e-19
-1.670173e-19
-1.710513e-19
-1.726153e-19
-1.731453e-19
-1.733068e-19
-1.733757e-19
-1.296089e-19
9.896280e-01
8.145293e-01
5.000000e-01
2.329100e-01
8.031522e-02
2.113631e-02
4.807795e-03
1.125398e-03
2.678493e-04
6.277692e-05
1.473121e-05
3.469390e-06
8.169728e-07
1.921855e-07
4.515805e-08
1.060677e-08
2.490411e-09
5.843864e-10
1.370268e-10
3.210573e-11
7.516534e-12
1.758902e-12
4.116243e-13
9.632719e-14
2.240728e-14
5.197864e-15
1.260067e-15
2.976886e-16
5.146050e-17
1.494824e-17
1.579349e-17
1.609229e-17
1.655936e-17
1.677094e-17
1.702184e-17
1.710565e-17
1.569553e-17
1.517146e-17
1.517034e-17
1.517031e-17
1.327671e-17
1.263836e-17
1.280831e-17
1.286504e-17
1.303522e-17
1.310968e-17
1.315156e-17
1.320114e-17
1.327672e-17
1.342252e-17
1.356315e-17
1.391659e-17
1.415962e-17
1.459534e-17
1.474108e-17
1.488906e-17
1.436298e-17
1.436508e-17
1.436836e-17
1.437988e-17
1.440900e-17
1.442386e-17
1.306684e-17
7.348064e-18
2.639282e-18
5.155202e-19
-3.177637e-20
-3.315856e-19
-5.298993e-19
-6.040010e-19
-6.287522e-19
-6.409262e-19
-6.489475e-19
-6.616235e-19
-6.694503e-19
-6.720494e-19
-6.731348e-19
-6.736750e-19
-6.739511e-19
-5.039906e-19
9.975372e-01
9.505126e-01
7.670900e-01
5.000000e-01
2.630203e-01
1.078907e-01
3.418043e-02
8.195690e-03
1.967745e-03
4.566491e-04
1.073165e-04
2.534060e-05
5.966083e-06
1.402015e-06
3.290947e-07
7.726012e-08
1.813087e-08
4.251406e-09
9.960017e-10
2.331685e-10
5.454991e-11
1.275687e-11
2.983187e-12
6.974139e-13
1.623859e-13
3.772752e-14
8.990892e-15
2.136950e-15
4.374786e-16
7.865935e-17
5.644661e-17
5.695333e-17
5.751798e-17
5.830736e-17
5.959139e-17
5.958822e-17
5.393394e-17
5.307272e-17
5.335402e-17
5.335561e-17
4.429888e-17
4.253615e-17
4.288773e-17
4.304613e-17
4.329379e-17
4.356273e-17
4.367399e-17
4.377223e-17
4.397684e-17
4.448914e-17
4.499800e-17
4.634408e-17
4.728082e-17
4.902986e-17
4.959501e-17
5.017268e-17
4.845607e-17
4.838638e-17
4.852061e-17
4.856407e-17
4.866573e-17
4.871194e-17
4.874081e-17
3.968790e-17
1.865435e-17
5.203899e-18
4.508317e-19
-1.016569e-18
-1.556254e-18
-1.736307e-18
-1.817664e-18
-1.851152e-18
-1.871635e-18
-1.896360e-18
-1.919097e-18
-1.922911e-18
-1.928494e-18
-1.930504e-18
-1.932607e-18
-1.452454e-18
9.994885e-01
9.899236e-01
9.196848e-01
7.369797e-01
5.000000e-01
2.830628e-01
1.314030e-01
4.727975e-02
1.355064e-02
3.073218e-03
7.295495e-04
1.728785e-04
4.060245e-05
9.522228e-06
2.232444e-06
5.239625e-07
1.228696e-07
2.877835e-08
6.733789e-09
1.574753e-09
3.681063e-10
8.601878e-11
2.009748e-11
4.693249e-12
1.093344e-12
2.542973e-13
5.984888e-14
1.418502e-14
3.179266e-15
5.865563e-16
1.833394e-16
1.728845e-16
1.804086e-16
1.829181e-16
1.873569e-16
1.789033e-16
1.686558e-16
1.711330e-16
1.695372e-16
1.695674e-16
1.373747e-16
1.322816e-16
1.329093e-16
1.335960e-16
1.340718e-16
1.349221e-16
1.352330e-16
1.354715e-16
1.360670e-16
1.376880e-16
1.392959e-16
1.436092e-16
1.466385e-16
1.529892e-16
1.541746e-16
1.560343e-16
1.507972e-16
1.506984e-16
1.509785e-16
1.511135e-16
1.514164e-16
1.515611e-16
1.519961e-16
1.519854e-16
1.023565e-16
3.810001e-17
6.678152e-18
-7.727138e-19
-3.405611e-18
-4.564050e-18
-5.048058e-18
-5.214492e-18
-5.296211e-18
-5.386539e-18
-5.520725e-18
-5.629816e-18
-5.680727e-18
-5.699113e-18
-5.707956e-18
-4.297302e-18
9.998800e-01
9.975726e-01
9.788637e-01
8.921093e-01
7.169372e-01
5.000000e-01
2.990306e-01
1.505616e-01
6.130055e-02
1.961421e-02
4.825746e-03
1.141666e-03
2.661082e-04
6.227176e-05
1.459061e-05
3.425605e-06
8.022433e-07
1.875769e-07
4.382407e-08
1.023770e-08
2.391148e-09
5.582961e-10
1.303095e-10
3.039586e-11
7.080771e-12
1.647686e-12
3.849039e-13
9.068646e-14
2.106475e-14
4.373739e-15
8.705693e-16
5.383746e-16
5.522160e-16
5.568185e-16
5.706376e-16
5.060017e-16
5.071805e-16
5.106917e-16
5.073543e-16
5.074514e-16
4.165589e-16
4.015435e-16
4.029901e-16
4.052458e-16
4.064107e-16
4.089954e-16
4.098798e-16
4.106091e-16
4.123721e-16
4.172728e-16
4.221617e-16
4.344436e-16
4.433666e-16
4.661701e-16
4.679966e-16
4.735983e-16
4.575177e-16
4.573486e-16
4.583147e-16
4.585952e-16
4.592339e-16
4.599473e-16
4.619165e-16
4.627090e-16
4.304467e-16
2.206332e-16
6.213534e-17
6.726992e-18
-6.114556e-18
-1.201999e-17
-1.430901e-17
-1.509303e-17
-1.540491e-17
-1.576866e-17
-1.629179e-17
-1.660388e-17
-1.687738e-17
-1.697383e-17
-1.700726e-17
-1.282963e-17
9.999721e-01
9.994375e-01
9.951922e-01
9.658196e-01
8.685970e-01
7.009694e-01
5.000000e-01
3.116338e-01
1.668149e-01
7.464008e-02
2.624605e-02
7.384862e-03
1.698486e-03
3.981358e-04
9.338716e-05
2.194410e-05
5.123969e-06
1.195250e-06
2.788358e-07
6.509004e-08
1.519198e-08
3.543809e-09
8.262013e-10
1.924934e-10
4.481951e-11
1.042876e-11
2.427109e-12
5.686413e-13
1.331149e-13
2.987251e-14
5.759720e-15
1.743699e-15
1.743651e-15
1.646526e-15
1.515472e-15
1.408096e-15
1.438920e-15
1.440384e-15
1.417780e-15
1.443784e-15
1.254317e-15
1.209527e-15
1.213290e-15
1.220298e-15
1.223468e-15
1.230997e-15
1.233615e-15
1.236088e-15
1.241249e-15
1.255947e-15
1.270646e-15
1.306857e-15
1.333503e-15
1.408502e-15
1.394839e-15
1.395108e-15
1.365077e-15
1.364487e-15
1.368624e-15
1.369987e-15
1.373957e-15
1.376623e-15
1.384463e-15
1.394522e-15
1.394656e-15
1.036210e-15
3.969760e-16
7.084783e-17
-3.195652e-18
-2.815538e-17
-3.913037e-17
-4.397795e-17
-4.567235e-17
-4.691046e-17
-4.860461e-17
-4.952492e-17
-5.044571e-17
-5.077881e-17
-5.089906e-17
-3.842179e-17
9.999935e-01
9.998691e-01
9.988746e-01
9.918043e-01
9.527202e-01
8.494384e-01
6.883662e-01
5.000000e-01
3.218059e-01
1.809878e-01
8.692191e-02
3.389809e-02
1.057916e-02
2.515824e-03
5.911122e-04
1.388861e-04
3.222217e-05
7.500290e-06
1.748533e-06
4.081495e-07
9.519633e-08
2.217988e-08
5.164071e-09
1.201738e-09
2.796031e-10
6.503159e-11
1.511044e-11
3.525512e-12
8.232598e-13
1.912136e-13
4.045695e-14
7.930792e-15
4.488200e-15
4.488414e-15
4.349616e-15
4.114258e-15
4.142366e-15
4.142624e-15
4.139024e-15
4.139489e-15
3.767929e-15
3.637084e-15
3.644350e-15
3.666205e-15
3.674814e-15
3.697421e-15
3.705754e-15
3.712593e-15
3.727476e-15
3.771796e-15
3.816374e-15
3.923887e-15
4.003579e-15
4.113195e-15
4.145707e-15
4.156916e-15
4.075473e-15
4.076004e-15
4.076286e-15
4.077356e-15
4.080271e-15
4.088783e-15
4.114155e-15
4.189733e-15
4.216176e-15
4.043982e-15
2.069885e-15
5.608086e-16
4.931880e-17
-3.593527e-17
-9.634122e-17
-1.250273e-16
-1.356135e-16
-1.403224e-16
-1.455390e-16
-1.482859e-16
-1.512032e-16
-1.522183e-16
-1.525624e-16
-1.151828e-16
9.999985e-01
9.999691e-01
9.997322e-01
9.980323e-01
9.864494e-01
9.386995e-01
8.331851e-01
6.781941e-01
5.000000e-01
3.304236e-01
1.934174e-01
9.819469e-02
4.177061e-02
1.402502e-02
3.721349e-03
8.710616e-04
1.996998e-04
4.654805e-05
1.086299e-05
2.537318e-06
5.910361e-07
1.374658e-07
3.195715e-08
7.429016e-09
1.727228e-09
4.014984e-10
9.322283e-11
2.169020e-11
5.044836e-12
1.183147e-12
2.662794e-13
5.187157e-14
1.327543e-14
1.221316e-14
1.222616e-14
1.223277e-14
1.224972e-14
1.181107e-14
1.149011e-14
1.160603e-14
1.128642e-14
1.091985e-14
1.093120e-14
1.100486e-14
1.102942e-14
1.109879e-14
1.112256e-14
1.114177e-14
1.118707e-14
1.131978e-14
1.145352e-14
1.177461e-14
1.201242e-14
1.235716e-14
1.240205e-14
1.244144e-14
1.188484e-14
1.188816e-14
1.189664e-14
1.192108e-14
1.199323e-14
1.202525e-14
1.210552e-14
1.228010e-14
1.267848e-14
1.269812e-14
9.107357e-15
3.249779e-15
4.492896e-16
-1.794508e-17
-2.271675e-16
-3.452243e-16
-3.983121e-16
-4.200305e-16
-4.363413e-16
-4.445116e-16
-4.533840e-16
-4.564285e-16
-4.574582e-16
-3.454433e-16
9.999996e-01
9.999927e-01
9.999372e-01
9.995434e-01
9.969268e-01
9.803858e-01
9.253599e-01
8.190122e-01
6.695764e-01
5.000000e-01
3.378680e-01
2.043164e-01
1.087124e-01
4.950413e-02
1.814632e-02
5.399781e-03
1.216383e-03
2.872586e-04
6.716063e-05
1.569080e-05
3.643295e-06
8.453696e-07
1.962626e-07
4.559802e-08
1.059599e-08
2.461516e-09
5.712173e-10
1.326599e-10
3.077322e-11
7.205020e-12
1.666745e-12
3.546732e-13
6.497780e-14
3.544021e-14
3.544152e-14
3.478718e-14
3.479479e-14
3.424689e-14
3.354714e-14
3.354626e-14
3.340546e-14
3.375901e-14
3.333843e-14
3.333521e-14
3.335415e-14
3.336003e-14
3.338126e-14
3.342724e-14
3.356210e-14
3.395990e-14
3.436223e-14
3.532291e-14
3.603827e-14
3.713291e-14
3.716840e-14
3.729411e-14
3.525991e-14
3.526903e-14
3.529011e-14
3.536037e-14
3.555817e-14
3.564830e-14
3.590907e-14
3.647269e-14
3.815554e-14
3.875889e-14
3.506858e-14
1.607208e-14
3.542549e-15
2.867935e-16
-3.571275e-16
-9.225486e-16
-1.174241e-15
-1.258434e-15
-1.308675e-15
-1.333124e-15
-1.359905e-15
-1.369053e-15
-1.372120e-15
-1.036099e-15
9.999999e-01
9.999983e-01
9.999853e-01
9.998927e-01
9.992705e-01
9.951743e-01
9.737540e-01
9.130781e-01
8.065826e-01
6.621320e-01
5.000000e-01
3.443037e-01
2.140607e-01
1.185073e-01
5.698105e-02
2.276788e-02
7.258694e-03
1.783598e-03
4.145465e-04
9.663985e-05
2.228978e-05
5.162173e-06
1.198130e-06
2.784324e-07
6.467884e-08
1.501307e-08
3.481285e-09
8.074245e-10
1.870516e-10
4.359091e-11
1.016766e-11
2.298109e-12
4.351877e-13
1.115768e-13
9.360470e-14
9.641701e-14
9.737212e-14
1.002135e-13
1.017181e-13
9.040935e-14
9.026552e-14
9.100613e-14
9.126747e-14
9.202913e-14
9.228408e-14
9.303291e-14
9.380397e-14
9.599755e-14
9.973045e-14
1.018722e-13
1.030806e-13
1.059631e-13
1.081047e-13
1.114961e-13
1.098780e-13
1.098846e-13
1.045533e-13
1.045674e-13
1.046184e-13
1.047465e-13
1.051454e-13
1.053798e-13
1.059198e-13
1.075218e-13
1.115581e-13
1.168698e-13
1.168584e-13
7.140875e-14
2.157054e-14
2.447579e-15
-3.033758e-16
-2.323010e-15
-3.391744e-15
-3.759805e-15
-3.925609e-15
-3.998704e-15
-4.077264e-15
-4.105358e-15
-4.114938e-15
-3.107513e-15
1.000000e+00
9.999996e-01
9.999965e-01
9.999747e-01
9.998271e-01
9.988583e-01
9.926151e-01
9.661019e-01
9.018053e-01
7.956836e-01
6.556963e-01
5.000000e-01
3.499662e-01
2.228726e-01
1.275564e-01
6.425944e-02
2.751431e-02
9.372936e-03
2.544229e-03
5.915945e-04
1.349738e-04
3.133182e-05
7.284942e-06
1.694622e-06
3.933435e-07
9.118003e-08
2.112054e-08
4.893733e-09
1.133017e-09
2.630478e-10
6.133538e-11
1.422975e-11
2.965125e-12
5.674464e-13
2.681963e-13
2.694148e-13
2.730623e-13
2.697925e-13
2.703189e-13
2.609963e-13
2.610094e-13
2.610463e-13
2.611515e-13
2.614551e-13
2.623532e-13
2.650408e-13
2.712283e-13
2.836933e-13
2.982119e-13
3.055965e-13
3.092190e-13
3.178484e-13
3.242826e-13
3.300973e-13
2.980774e-13
2.966902e-13
3.018686e-13
3.036126e-13
3.088335e-13
3.119387e-13
3.138835e-13
3.145463e-13
3.157152e-13
3.191477e-13
3.293400e-13
3.513034e-13
3.586183e-13
2.766113e-13
1.081696e-13
1.898222e-14
6.587109e-16
-6.230363e-15
-9.784398e-15
-1.123266e-14
-1.177630e-14
-1.199420e-14
-1.223330e-14
-1.231558e-14
-1.234257e-14
-9.321149e-15
1.000000e+00
9.999999e-01
9.999992e-01
9.999940e-01
9.999594e-01
9.997339e-01
9.983015e-01
9.894208e-01
9.582294e-01
8.912876e-01
7.859393e-01
6.500338e-01
5.000000e-01
3.550292e-01
2.308585e-01
1.359693e-01
7.129642e-02
3.234354e-02
1.193495e-02
3.588691e-03
8.057817e-04
1.898230e-04
4.424833e-05
1.029707e-05
2.384074e-06
5.515116e-07
1.276087e-07
2.955157e-08
6.840396e-09
1.584718e-09
3.684597e-10
8.600835e-11
1.914836e-11
3.727914e-12
8.656192e-13
7.484721e-13
7.849772e-13
7.740961e-13
7.741973e-13
7.610518e-13
7.611657e-13
7.613878e-13
7.618271e-13
7.632118e-13
7.672931e-13
7.793814e-13
8.018187e-13
8.466600e-13
8.935982e-13
9.166992e-13
9.275765e-13
9.469437e-13
9.533184e-13
9.728535e-13
8.628823e-13
8.614429e-13
8.659910e-13
8.683070e-13
8.753828e-13
8.785809e-13
8.872669e-13
9.042477e-13
9.251853e-13
9.465670e-13
9.749487e-13
1.059304e-12
1.102204e-12
1.005411e-12
4.811648e-13
1.214087e-13
1.257433e-14
-1.406643e-14
-2.827087e-14
-3.347052e-14
-3.532479e-14
-3.597797e-14
-3.669516e-14
-3.693788e-14
-3.701892e-14
-2.795994e-14
1.000000e+00
1.000000e+00
9.999998e-01
9.999986e-01
9.999905e-01
9.999377e-01
9.996019e-01
9.974842e-01
9.859750e-01
9.504959e-01
8.814927e-01
7.771274e-01
6.449708e-01
5.000000e-01
3.595837e-01
2.381397e-01
1.438292e-01
7.809825e-02
3.714616e-02
1.480574e-02
4.722148e-03
1.161666e-03
2.691235e-04
6.247383e-05
1.438300e-05
3.320703e-06
7.681209e-07
1.779135e-07
4.118315e-08
9.530051e-09
2.209812e-09
5.147081e-10
1.182644e-10
2.484006e-11
4.523441e-12
2.198965e-12
2.199096e-12
2.190463e-12
2.199919e-12
2.202930e-12
2.212089e-12
2.215152e-12
2.218656e-12
2.227487e-12
2.253198e-12
2.317802e-12
2.393363e-12
2.535429e-12
2.679739e-12
2.749864e-12
2.782654e-12
2.878258e-12
2.665850e-12
2.666253e-12
2.557456e-12
2.557726e-12
2.558104e-12
2.559267e-12
2.562505e-12
2.572257e-12
2.601514e-12
2.673231e-12
2.753499e-12
2.828689e-12
2.911582e-12
3.109419e-12
3.228461e-12
3.240004e-12
1.980350e-12
6.262709e-13
8.533342e-14
-1.668112e-14
-7.784159e-14
-9.849200e-14
-1.054035e-13
-1.078150e-13
-1.099806e-13
-1.107491e-13
-1.110154e-13
-8.387116e-14
1.000000e+00
1.000000e+00
1.000000e+00
9.999997e-01
9.999978e-01
9.999854e-01
9.999066e-01
9.994089e-01
9.962787e-01
9.818537e-01
9.430189e-01
8.724436e-01
7.691415e-01
6.404163e-01
5.000000e-01
3.637045e-01
2.448224e-01
1.512088e-01
8.459718e-02
4.196225e-02
1.778948e-02
6.034504e-03
1.630114e-03
3.773551e-04
8.609244e-05
1.990220e-05
4.611157e-06
1.069003e-06
2.474134e-07
5.719316e-08
1.323397e-08
3.070187e-09
7.125837e-10
1.582315e-10
3.036107e-11
7.055506e-12
6.339858e-12
6.428550e-12
6.482153e-12
6.530484e-12
6.565253e-12
6.577702e-12
6.588914e-12
6.620209e-12
6.710612e-12
6.932387e-12
7.149112e-12
7.366796e-12
7.408199e-12
7.534556e-12
7.221105e-12
7.234565e-12
7.269411e-12
7.290941e-12
7.351955e-12
7.375375e-12
7.417595e-12
7.432406e-12
7.468696e-12
7.575150e-12
7.743725e-12
7.980493e-12
8.238168e-12
8.474388e-12
8.720671e-12
9.132762e-12
9.607034e-12
9.684120e-12
7.241511e-12
2.891222e-12
6.087074e-13
-1.536296e-14
-2.234065e-13
-2.924532e-13
-3.156247e-13
-3.233232e-13
-3.298079e-13
-3.321623e-13
-3.329913e-13
-2.516141e-13
1.000000e+00
1.000000e+00
1.000000e+00
9.999999e-01
9.999995e-01
9.999966e-01
9.999781e-01
9.998611e-01
9.991289e-01
9.946002e-01
9.772321e-01
9.357406e-01
8.640307e-01
7.618603e-01
6.362955e-01
5.000000e-01
3.674583e-01
2.509979e-01
1.581232e-01
9.083812e-02
4.673442e-02
2.088926e-02
7.615848e-03
2.261511e-03
5.092824e-04
1.190745e-04
2.767185e-05
6.418316e-06
1.483529e-06
3.423757e-07
7.908665e-08
1.829096e-08
4.248018e-09
9.696819e-10
2.026956e-10
3.741181e-11
1.879997e-11
1.884116e-11
1.932684e-11
1.951284e-11
1.962448e-11
1.966686e-11
1.969937e-11
1.979529e-11
2.008059e-11
2.077550e-11
2.141570e-11
2.205943e-11
2.009495e-11
1.945966e-11
1.998541e-11
2.016266e-11
2.068852e-11
2.087999e-11
2.117445e-11
2.131007e-11
2.145942e-11
2.169634e-11
2.207899e-11
2.258381e-11
2.317019e-11
2.390051e-11
2.469102e-11
2.541067e-11
2.614698e-11
2.720013e-11
2.873682e-11
2.901087e-11
2.408708e-11
1.226694e-11
3.791477e-12
-2.762612e-14
-6.637354e-13
-8.757465e-13
-9.462215e-13
-9.696029e-13
-9.887306e-13
-9.962298e-13
-9.987226e-13
-7.547264e-13
1.000000e+00
1.000000e+00
1.000000e+00
1.000000e+00
9.999999e-01
9.999992e-01
9.999949e-01
9.999678e-01
9.998003e-01
9.987836e-01
9.927413e-01
9.724857e-01
9.287036e-01
8.561708e-01
7.551776e-01
6.325417e-01
5.000000e-01
3.709043e-01
2.567203e-01
1.646241e-01
9.683272e-02
5.145775e-02
2.404293e-02
9.416018e-03
2.968646e-03
7.181211e-04
1.664204e-04
3.851577e-05
8.870453e-06
2.042664e-06
4.713193e-07
1.088443e-07
2.523276e-08
5.815097e-09
1.287676e-09
2.515258e-10
6.187994e-11
5.607225e-11
5.786261e-11
5.845973e-11
5.879772e-11
5.893092e-11
5.902559e-11
5.932202e-11
6.019163e-11
6.230115e-11
6.420983e-11
6.539949e-11
5.815807e-11
5.523810e-11
5.748751e-11
5.824039e-11
6.049837e-11
6.133537e-11
6.251834e-11
6.305584e-11
6.357858e-11
6.448002e-11
6.590799e-11
6.760344e-11
6.944261e-11
7.165717e-11
7.404937e-11
7.621897e-11
7.841836e-11
8.139269e-11
8.612291e-11
8.698702e-11
6.267249e-11
2.874523e-11
7.183823e-12
-7.767783e-13
-2.211258e-12
-2.690057e-12
-2.849444e-12
-2.909014e-12
-2.963350e-12
-2.986439e-12
-2.994566e-12
-2.263637e-12
1.000000e+00
1.000000e+00
1.000000e+00
1.000000e+00
1.000000e+00
9.999998e-01
9.999988e-01
9.999925e-01
9.999535e-01
9.997127e-01
9.982164e-01
9.906271e-01
9.676565e-01
9.219017e-01
8.487912e-01
7.490021e-01
6.290957e-01
5.000000e-01
3.740821e-01
2.620423e-01
1.707542e-01
1.026007e-01
5.608537e-02
2.725903e-02
1.132744e-02
3.782918e-03
9.997748e-04
2.304375e-04
5.275660e-05
1.213446e-05
2.801237e-06
6.469000e-07
1.497353e-07
3.456034e-08
7.870140e-09
1.656558e-09
3.272075e-10
1.758199e-10
1.757005e-10
1.761471e-10
1.762939e-10
1.767187e-10
1.770204e-10
1.778964e-10
1.805035e-10
1.868786e-10
1.925899e-10
1.954203e-10
1.719743e-10
1.621563e-10
1.697752e-10
1.723126e-10
1.799193e-10
1.826910e-10
1.865429e-10
1.882948e-10
1.899159e-10
1.928221e-10
1.973878e-10
2.026621e-10
2.082459e-10
2.149123e-10
2.221145e-10
2.286380e-10
2.352312e-10
2.439752e-10
2.390784e-10
1.770596e-10
8.692982e-11
2.386025e-11
1.755312e-12
-5.193500e-12
-7.506746e-12
-8.279278e-12
-8.554502e-12
-8.648681e-12
-8.874383e-12
-8.953657e-12
-8.980034e-12
-6.789270e-12
1.000000e+00
1.000000e+00
1.000000e+00
1.000000e+00
1.000000e+00
1.000000e+00
9.999997e-01
9.999983e-01
9.999891e-01
9.999328e-01
9.995855e-01
9.974558e-01
9.880651e-01
9.628538e-01
9.154028e-01
8.418768e-01
7.432797e-01
6.259179e-01
5.000000e-01
3.770239e-01
2.670101e-01
1.765533e-01
1.081371e-01
6.062225e-02
3.050877e-02
1.333941e-02
4.746077e-03
1.369188e-03
3.110763e-04
7.181429e-05
1.662781e-05
3.841992e-06
8.883250e-07
2.047501e-07
4.707295e-08
1.038056e-08
2.154537e-09
5.992132e-10
4.359826e-10
4.539626e-10
4.599678e-10
4.779637e-10
4.937187e-10
5.061590e-10
5.208190e-10
5.412921e-10
5.561167e-10
5.652147e-10
4.992531e-10
4.702681e-10
4.859235e-10
4.912325e-10
5.069418e-10
5.125681e-10
5.213473e-10
5.282854e-10
5.338064e-10
5.400520e-10
5.492573e-10
5.605941e-10
5.711415e-10
5.792263e-10
5.925100e-10
6.065308e-10
6.154369e-10
5.448959e-10
3.876374e-10
1.876163e-10
6.585499e-11
7.623089e-12
-1.454597e-11
-2.174423e-11
-2.422075e-11
-2.505220e-11
-2.543058e-11
-2.587425e-11
-2.660000e-11